#LAMMPS data file for 2000 particles on a sphere with params 8 

1340 atoms
450 atom types
7 bonds
5 bond types
5 angles
3 angle types

-3 3 xlo xhi
-3 3 ylo yhi
-3 3 zlo zhi


PairIJ Coeffs # lj/cut
# atom_type_1	atom_type_1	energy	sigma	truncated=sigma*2^(1/6)
1 1 lj/cut 1.000 0.080 0.0898
1 2 lj/cut 1.000 0.128 0.1431
1 3 lj/cut 1.000 0.128 0.1431
1 4 lj/cut 1.000 0.128 0.1431
1 5 lj/cut 1.000 0.128 0.1431
1 6 lj/cut 1.000 0.128 0.1431
1 7 lj/cut 1.000 0.175 0.1964
1 8 lj/cut 1.000 0.175 0.1964
1 9 lj/cut 1.000 0.175 0.1964
1 10 lj/cut 1.000 0.175 0.1964
1 11 lj/cut 1.000 0.175 0.1964
1 12 lj/cut 1.000 0.175 0.1964
1 13 lj/cut 1.000 0.175 0.1964
1 14 lj/cut 1.000 0.175 0.1964
1 15 lj/cut 1.000 0.175 0.1964
1 16 lj/cut 1.000 0.175 0.1964
1 17 lj/cut 1.000 0.175 0.1964
1 18 lj/cut 1.000 0.175 0.1964
1 19 lj/cut 1.000 0.175 0.1964
1 20 lj/cut 1.000 0.175 0.1964
1 21 lj/cut 1.000 0.175 0.1964
1 22 lj/cut 1.000 0.175 0.1964
1 23 lj/cut 1.000 0.175 0.1964
1 24 lj/cut 1.000 0.175 0.1964
1 25 lj/cut 1.000 0.175 0.1964
1 26 lj/cut 1.000 0.175 0.1964
1 27 lj/cut 1.000 0.175 0.1964
1 28 lj/cut 1.000 0.175 0.1964
1 29 lj/cut 1.000 0.175 0.1964
1 30 lj/cut 1.000 0.175 0.1964
1 31 lj/cut 1.000 0.175 0.1964
1 32 lj/cut 1.000 0.175 0.1964
1 33 lj/cut 1.000 0.175 0.1964
1 34 lj/cut 1.000 0.175 0.1964
1 35 lj/cut 1.000 0.175 0.1964
1 36 lj/cut 1.000 0.175 0.1964
1 37 lj/cut 1.000 0.175 0.1964
1 38 lj/cut 1.000 0.175 0.1964
1 39 lj/cut 1.000 0.175 0.1964
1 40 lj/cut 1.000 0.175 0.1964
1 41 lj/cut 1.000 0.175 0.1964
1 42 lj/cut 1.000 0.175 0.1964
1 43 lj/cut 1.000 0.175 0.1964
1 44 lj/cut 1.000 0.175 0.1964
1 45 lj/cut 1.000 0.175 0.1964
1 46 lj/cut 1.000 0.175 0.1964
1 47 lj/cut 1.000 0.175 0.1964
1 48 lj/cut 1.000 0.175 0.1964
1 49 lj/cut 1.000 0.175 0.1964
1 50 lj/cut 1.000 0.175 0.1964
1 51 lj/cut 1.000 0.175 0.1964
1 52 lj/cut 1.000 0.175 0.1964
1 53 lj/cut 1.000 0.175 0.1964
1 54 lj/cut 1.000 0.175 0.1964
1 55 lj/cut 1.000 0.175 0.1964
1 56 lj/cut 1.000 0.175 0.1964
1 57 lj/cut 1.000 0.175 0.1964
1 58 lj/cut 1.000 0.175 0.1964
1 59 lj/cut 1.000 0.175 0.1964
1 60 lj/cut 1.000 0.175 0.1964
1 61 lj/cut 1.000 0.175 0.1964
1 62 lj/cut 1.000 0.175 0.1964
1 63 lj/cut 1.000 0.175 0.1964
1 64 lj/cut 1.000 0.175 0.1964
1 65 lj/cut 1.000 0.175 0.1964
1 66 lj/cut 1.000 0.175 0.1964
1 67 lj/cut 1.000 0.175 0.1964
1 68 lj/cut 1.000 0.175 0.1964
1 69 lj/cut 1.000 0.175 0.1964
1 70 lj/cut 1.000 0.175 0.1964
1 71 lj/cut 1.000 0.175 0.1964
1 72 lj/cut 1.000 0.175 0.1964
1 73 lj/cut 1.000 0.175 0.1964
1 74 lj/cut 1.000 0.175 0.1964
1 75 lj/cut 1.000 0.175 0.1964
1 76 lj/cut 1.000 0.175 0.1964
1 77 lj/cut 1.000 0.175 0.1964
1 78 lj/cut 1.000 0.175 0.1964
1 79 lj/cut 1.000 0.175 0.1964
1 80 lj/cut 1.000 0.175 0.1964
1 81 lj/cut 1.000 0.175 0.1964
1 82 lj/cut 1.000 0.175 0.1964
1 83 lj/cut 1.000 0.175 0.1964
1 84 lj/cut 1.000 0.175 0.1964
1 85 lj/cut 1.000 0.175 0.1964
1 86 lj/cut 1.000 0.175 0.1964
1 87 lj/cut 1.000 0.175 0.1964
1 88 lj/cut 1.000 0.175 0.1964
1 89 lj/cut 1.000 0.175 0.1964
1 90 lj/cut 1.000 0.175 0.1964
1 91 lj/cut 1.000 0.175 0.1964
1 92 lj/cut 1.000 0.175 0.1964
1 93 lj/cut 1.000 0.175 0.1964
1 94 lj/cut 1.000 0.175 0.1964
1 95 lj/cut 1.000 0.175 0.1964
1 96 lj/cut 1.000 0.175 0.1964
1 97 lj/cut 1.000 0.175 0.1964
1 98 lj/cut 1.000 0.175 0.1964
1 99 lj/cut 1.000 0.175 0.1964
1 100 lj/cut 1.000 0.175 0.1964
1 101 lj/cut 1.000 0.175 0.1964
1 102 lj/cut 1.000 0.175 0.1964
1 103 lj/cut 1.000 0.175 0.1964
1 104 lj/cut 1.000 0.175 0.1964
1 105 lj/cut 1.000 0.175 0.1964
1 106 lj/cut 1.000 0.175 0.1964
1 107 lj/cut 1.000 0.175 0.1964
1 108 lj/cut 1.000 0.175 0.1964
1 109 lj/cut 1.000 0.175 0.1964
1 110 lj/cut 1.000 0.175 0.1964
1 111 lj/cut 1.000 0.175 0.1964
1 112 lj/cut 1.000 0.175 0.1964
1 113 lj/cut 1.000 0.175 0.1964
1 114 lj/cut 1.000 0.175 0.1964
1 115 lj/cut 1.000 0.175 0.1964
1 116 lj/cut 1.000 0.175 0.1964
1 117 lj/cut 1.000 0.175 0.1964
1 118 lj/cut 1.000 0.175 0.1964
1 119 lj/cut 1.000 0.175 0.1964
1 120 lj/cut 1.000 0.175 0.1964
1 121 lj/cut 1.000 0.175 0.1964
1 122 lj/cut 1.000 0.175 0.1964
1 123 lj/cut 1.000 0.175 0.1964
1 124 lj/cut 1.000 0.175 0.1964
1 125 lj/cut 1.000 0.175 0.1964
1 126 lj/cut 1.000 0.175 0.1964
1 127 lj/cut 1.000 0.175 0.1964
1 128 lj/cut 1.000 0.175 0.1964
1 129 lj/cut 1.000 0.175 0.1964
1 130 lj/cut 1.000 0.175 0.1964
1 131 lj/cut 1.000 0.175 0.1964
1 132 lj/cut 1.000 0.175 0.1964
1 133 lj/cut 1.000 0.175 0.1964
1 134 lj/cut 1.000 0.175 0.1964
1 135 lj/cut 1.000 0.175 0.1964
1 136 lj/cut 1.000 0.175 0.1964
1 137 lj/cut 1.000 0.175 0.1964
1 138 lj/cut 1.000 0.175 0.1964
1 139 lj/cut 1.000 0.175 0.1964
1 140 lj/cut 1.000 0.175 0.1964
1 141 lj/cut 1.000 0.175 0.1964
1 142 lj/cut 1.000 0.175 0.1964
1 143 lj/cut 1.000 0.175 0.1964
1 144 lj/cut 1.000 0.175 0.1964
1 145 lj/cut 1.000 0.175 0.1964
1 146 lj/cut 1.000 0.175 0.1964
1 147 lj/cut 1.000 0.175 0.1964
1 148 lj/cut 1.000 0.175 0.1964
1 149 lj/cut 1.000 0.175 0.1964
1 150 lj/cut 1.000 0.175 0.1964
1 151 lj/cut 1.000 0.175 0.1964
1 152 lj/cut 1.000 0.175 0.1964
1 153 lj/cut 1.000 0.175 0.1964
1 154 lj/cut 1.000 0.175 0.1964
1 155 lj/cut 1.000 0.175 0.1964
1 156 lj/cut 1.000 0.175 0.1964
1 157 lj/cut 1.000 0.175 0.1964
1 158 lj/cut 1.000 0.175 0.1964
1 159 lj/cut 1.000 0.175 0.1964
1 160 lj/cut 1.000 0.175 0.1964
1 161 lj/cut 1.000 0.175 0.1964
1 162 lj/cut 1.000 0.175 0.1964
1 163 lj/cut 1.000 0.175 0.1964
1 164 lj/cut 1.000 0.175 0.1964
1 165 lj/cut 1.000 0.175 0.1964
1 166 lj/cut 1.000 0.175 0.1964
1 167 lj/cut 1.000 0.175 0.1964
1 168 lj/cut 1.000 0.175 0.1964
1 169 lj/cut 1.000 0.175 0.1964
1 170 lj/cut 1.000 0.175 0.1964
1 171 lj/cut 1.000 0.175 0.1964
1 172 lj/cut 1.000 0.175 0.1964
1 173 lj/cut 1.000 0.175 0.1964
1 174 lj/cut 1.000 0.175 0.1964
1 175 lj/cut 1.000 0.175 0.1964
1 176 lj/cut 1.000 0.175 0.1964
1 177 lj/cut 1.000 0.175 0.1964
1 178 lj/cut 1.000 0.175 0.1964
1 179 lj/cut 1.000 0.175 0.1964
1 180 lj/cut 1.000 0.175 0.1964
1 181 lj/cut 1.000 0.175 0.1964
1 182 lj/cut 1.000 0.175 0.1964
1 183 lj/cut 1.000 0.175 0.1964
1 184 lj/cut 1.000 0.175 0.1964
1 185 lj/cut 1.000 0.175 0.1964
1 186 lj/cut 1.000 0.175 0.1964
1 187 lj/cut 1.000 0.175 0.1964
1 188 lj/cut 1.000 0.175 0.1964
1 189 lj/cut 1.000 0.175 0.1964
1 190 lj/cut 1.000 0.175 0.1964
1 191 lj/cut 1.000 0.175 0.1964
1 192 lj/cut 1.000 0.175 0.1964
1 193 lj/cut 1.000 0.175 0.1964
1 194 lj/cut 1.000 0.175 0.1964
1 195 lj/cut 1.000 0.175 0.1964
1 196 lj/cut 1.000 0.175 0.1964
1 197 lj/cut 1.000 0.175 0.1964
1 198 lj/cut 1.000 0.175 0.1964
1 199 lj/cut 1.000 0.175 0.1964
1 200 lj/cut 1.000 0.175 0.1964
1 201 lj/cut 1.000 0.175 0.1964
1 202 lj/cut 1.000 0.175 0.1964
1 203 lj/cut 1.000 0.175 0.1964
1 204 lj/cut 1.000 0.175 0.1964
1 205 lj/cut 1.000 0.175 0.1964
1 206 lj/cut 1.000 0.175 0.1964
1 207 lj/cut 1.000 0.175 0.1964
1 208 lj/cut 1.000 0.175 0.1964
1 209 lj/cut 1.000 0.175 0.1964
1 210 lj/cut 1.000 0.175 0.1964
1 211 lj/cut 1.000 0.175 0.1964
1 212 lj/cut 1.000 0.175 0.1964
1 213 lj/cut 1.000 0.175 0.1964
1 214 lj/cut 1.000 0.175 0.1964
1 215 lj/cut 1.000 0.175 0.1964
1 216 lj/cut 1.000 0.175 0.1964
1 217 lj/cut 1.000 0.175 0.1964
1 218 lj/cut 1.000 0.175 0.1964
1 219 lj/cut 1.000 0.175 0.1964
1 220 lj/cut 1.000 0.175 0.1964
1 221 lj/cut 1.000 0.175 0.1964
1 222 lj/cut 1.000 0.175 0.1964
1 223 lj/cut 1.000 0.175 0.1964
1 224 lj/cut 1.000 0.175 0.1964
1 225 lj/cut 1.000 0.175 0.1964
1 226 lj/cut 1.000 0.175 0.1964
1 227 lj/cut 1.000 0.175 0.1964
1 228 lj/cut 1.000 0.175 0.1964
1 229 lj/cut 1.000 0.175 0.1964
1 230 lj/cut 1.000 0.175 0.1964
1 231 lj/cut 1.000 0.175 0.1964
1 232 lj/cut 1.000 0.175 0.1964
1 233 lj/cut 1.000 0.175 0.1964
1 234 lj/cut 1.000 0.175 0.1964
1 235 lj/cut 1.000 0.175 0.1964
1 236 lj/cut 1.000 0.175 0.1964
1 237 lj/cut 1.000 0.175 0.1964
1 238 lj/cut 1.000 0.175 0.1964
1 239 lj/cut 1.000 0.175 0.1964
1 240 lj/cut 1.000 0.175 0.1964
1 241 lj/cut 1.000 0.175 0.1964
1 242 lj/cut 1.000 0.175 0.1964
1 243 lj/cut 1.000 0.175 0.1964
1 244 lj/cut 1.000 0.175 0.1964
1 245 lj/cut 1.000 0.175 0.1964
1 246 lj/cut 1.000 0.175 0.1964
1 247 lj/cut 1.000 0.175 0.1964
1 248 lj/cut 1.000 0.175 0.1964
1 249 lj/cut 1.000 0.175 0.1964
1 250 lj/cut 1.000 0.175 0.1964
1 251 lj/cut 1.000 0.175 0.1964
1 252 lj/cut 1.000 0.175 0.1964
1 253 lj/cut 1.000 0.175 0.1964
1 254 lj/cut 1.000 0.175 0.1964
1 255 lj/cut 1.000 0.175 0.1964
1 256 lj/cut 1.000 0.175 0.1964
1 257 lj/cut 1.000 0.175 0.1964
1 258 lj/cut 1.000 0.175 0.1964
1 259 lj/cut 1.000 0.175 0.1964
1 260 lj/cut 1.000 0.175 0.1964
1 261 lj/cut 1.000 0.175 0.1964
1 262 lj/cut 1.000 0.175 0.1964
1 263 lj/cut 1.000 0.175 0.1964
1 264 lj/cut 1.000 0.175 0.1964
1 265 lj/cut 1.000 0.175 0.1964
1 266 lj/cut 1.000 0.175 0.1964
1 267 lj/cut 1.000 0.175 0.1964
1 268 lj/cut 1.000 0.175 0.1964
1 269 lj/cut 1.000 0.175 0.1964
1 270 lj/cut 1.000 0.175 0.1964
1 271 lj/cut 1.000 0.175 0.1964
1 272 lj/cut 1.000 0.175 0.1964
1 273 lj/cut 1.000 0.175 0.1964
1 274 lj/cut 1.000 0.175 0.1964
1 275 lj/cut 1.000 0.175 0.1964
1 276 lj/cut 1.000 0.175 0.1964
1 277 lj/cut 1.000 0.175 0.1964
1 278 lj/cut 1.000 0.175 0.1964
1 279 lj/cut 1.000 0.175 0.1964
1 280 lj/cut 1.000 0.175 0.1964
1 281 lj/cut 1.000 0.175 0.1964
1 282 lj/cut 1.000 0.175 0.1964
1 283 lj/cut 1.000 0.175 0.1964
1 284 lj/cut 1.000 0.175 0.1964
1 285 lj/cut 1.000 0.175 0.1964
1 286 lj/cut 1.000 0.175 0.1964
1 287 lj/cut 1.000 0.175 0.1964
1 288 lj/cut 1.000 0.175 0.1964
1 289 lj/cut 1.000 0.175 0.1964
1 290 lj/cut 1.000 0.175 0.1964
1 291 lj/cut 1.000 0.175 0.1964
1 292 lj/cut 1.000 0.175 0.1964
1 293 lj/cut 1.000 0.175 0.1964
1 294 lj/cut 1.000 0.175 0.1964
1 295 lj/cut 1.000 0.175 0.1964
1 296 lj/cut 1.000 0.175 0.1964
1 297 lj/cut 1.000 0.175 0.1964
1 298 lj/cut 1.000 0.175 0.1964
1 299 lj/cut 1.000 0.175 0.1964
1 300 lj/cut 1.000 0.175 0.1964
1 301 lj/cut 1.000 0.175 0.1964
1 302 lj/cut 1.000 0.175 0.1964
1 303 lj/cut 1.000 0.175 0.1964
1 304 lj/cut 1.000 0.175 0.1964
1 305 lj/cut 1.000 0.175 0.1964
1 306 lj/cut 1.000 0.175 0.1964
1 307 lj/cut 1.000 0.175 0.1964
1 308 lj/cut 1.000 0.175 0.1964
1 309 lj/cut 1.000 0.175 0.1964
1 310 lj/cut 1.000 0.175 0.1964
1 311 lj/cut 1.000 0.175 0.1964
1 312 lj/cut 1.000 0.175 0.1964
1 313 lj/cut 1.000 0.175 0.1964
1 314 lj/cut 1.000 0.175 0.1964
1 315 lj/cut 1.000 0.175 0.1964
1 316 lj/cut 1.000 0.175 0.1964
1 317 lj/cut 1.000 0.175 0.1964
1 318 lj/cut 1.000 0.175 0.1964
1 319 lj/cut 1.000 0.175 0.1964
1 320 lj/cut 1.000 0.175 0.1964
1 321 lj/cut 1.000 0.175 0.1964
1 322 lj/cut 1.000 0.175 0.1964
1 323 lj/cut 1.000 0.175 0.1964
1 324 lj/cut 1.000 0.175 0.1964
1 325 lj/cut 1.000 0.175 0.1964
1 326 lj/cut 1.000 0.175 0.1964
1 327 lj/cut 1.000 0.175 0.1964
1 328 lj/cut 1.000 0.175 0.1964
1 329 lj/cut 1.000 0.175 0.1964
1 330 lj/cut 1.000 0.175 0.1964
1 331 lj/cut 1.000 0.175 0.1964
1 332 lj/cut 1.000 0.175 0.1964
1 333 lj/cut 1.000 0.175 0.1964
1 334 lj/cut 1.000 0.175 0.1964
1 335 lj/cut 1.000 0.175 0.1964
1 336 lj/cut 1.000 0.175 0.1964
1 337 lj/cut 1.000 0.175 0.1964
1 338 lj/cut 1.000 0.175 0.1964
1 339 lj/cut 1.000 0.175 0.1964
1 340 lj/cut 1.000 0.175 0.1964
1 341 lj/cut 1.000 0.175 0.1964
1 342 lj/cut 1.000 0.175 0.1964
1 343 lj/cut 1.000 0.175 0.1964
1 344 lj/cut 1.000 0.175 0.1964
1 345 lj/cut 1.000 0.175 0.1964
1 346 lj/cut 1.000 0.175 0.1964
1 347 lj/cut 1.000 0.175 0.1964
1 348 lj/cut 1.000 0.175 0.1964
1 349 lj/cut 1.000 0.175 0.1964
1 350 lj/cut 1.000 0.175 0.1964
1 351 lj/cut 1.000 0.175 0.1964
1 352 lj/cut 1.000 0.175 0.1964
1 353 lj/cut 1.000 0.175 0.1964
1 354 lj/cut 1.000 0.175 0.1964
1 355 lj/cut 1.000 0.175 0.1964
1 356 lj/cut 1.000 0.175 0.1964
1 357 lj/cut 1.000 0.175 0.1964
1 358 lj/cut 1.000 0.175 0.1964
1 359 lj/cut 1.000 0.175 0.1964
1 360 lj/cut 1.000 0.175 0.1964
1 361 lj/cut 1.000 0.175 0.1964
1 362 lj/cut 1.000 0.175 0.1964
1 363 lj/cut 1.000 0.175 0.1964
1 364 lj/cut 1.000 0.175 0.1964
1 365 lj/cut 1.000 0.175 0.1964
1 366 lj/cut 1.000 0.175 0.1964
1 367 lj/cut 1.000 0.175 0.1964
1 368 lj/cut 1.000 0.175 0.1964
1 369 lj/cut 1.000 0.175 0.1964
1 370 lj/cut 1.000 0.175 0.1964
1 371 lj/cut 1.000 0.175 0.1964
1 372 lj/cut 1.000 0.175 0.1964
1 373 lj/cut 1.000 0.175 0.1964
1 374 lj/cut 1.000 0.175 0.1964
1 375 lj/cut 1.000 0.175 0.1964
1 376 lj/cut 1.000 0.175 0.1964
1 377 lj/cut 1.000 0.175 0.1964
1 378 lj/cut 1.000 0.175 0.1964
1 379 lj/cut 1.000 0.175 0.1964
1 380 lj/cut 1.000 0.175 0.1964
1 381 lj/cut 1.000 0.175 0.1964
1 382 lj/cut 1.000 0.175 0.1964
1 383 lj/cut 1.000 0.175 0.1964
1 384 lj/cut 1.000 0.175 0.1964
1 385 lj/cut 1.000 0.175 0.1964
1 386 lj/cut 1.000 0.175 0.1964
1 387 lj/cut 1.000 0.175 0.1964
1 388 lj/cut 1.000 0.175 0.1964
1 389 lj/cut 1.000 0.175 0.1964
1 390 lj/cut 1.000 0.175 0.1964
1 391 lj/cut 1.000 0.175 0.1964
1 392 lj/cut 1.000 0.175 0.1964
1 393 lj/cut 1.000 0.175 0.1964
1 394 lj/cut 1.000 0.175 0.1964
1 395 lj/cut 1.000 0.175 0.1964
1 396 lj/cut 1.000 0.175 0.1964
1 397 lj/cut 1.000 0.175 0.1964
1 398 lj/cut 1.000 0.175 0.1964
1 399 lj/cut 1.000 0.175 0.1964
1 400 lj/cut 1.000 0.175 0.1964
1 401 lj/cut 1.000 0.175 0.1964
1 402 lj/cut 1.000 0.175 0.1964
1 403 lj/cut 1.000 0.175 0.1964
1 404 lj/cut 1.000 0.175 0.1964
1 405 lj/cut 1.000 0.175 0.1964
1 406 lj/cut 1.000 0.175 0.1964
1 407 lj/cut 1.000 0.175 0.1964
1 408 lj/cut 1.000 0.175 0.1964
1 409 lj/cut 1.000 0.175 0.1964
1 410 lj/cut 1.000 0.175 0.1964
1 411 lj/cut 1.000 0.175 0.1964
1 412 lj/cut 1.000 0.175 0.1964
1 413 lj/cut 1.000 0.175 0.1964
1 414 lj/cut 1.000 0.175 0.1964
1 415 lj/cut 1.000 0.175 0.1964
1 416 lj/cut 1.000 0.175 0.1964
1 417 lj/cut 1.000 0.175 0.1964
1 418 lj/cut 1.000 0.175 0.1964
1 419 lj/cut 1.000 0.175 0.1964
1 420 lj/cut 1.000 0.175 0.1964
1 421 lj/cut 1.000 0.175 0.1964
1 422 lj/cut 1.000 0.175 0.1964
1 423 lj/cut 1.000 0.175 0.1964
1 424 lj/cut 1.000 0.175 0.1964
1 425 lj/cut 1.000 0.175 0.1964
1 426 lj/cut 1.000 0.175 0.1964
1 427 lj/cut 1.000 0.175 0.1964
1 428 lj/cut 1.000 0.175 0.1964
1 429 lj/cut 1.000 0.175 0.1964
1 430 lj/cut 1.000 0.175 0.1964
1 431 lj/cut 1.000 0.175 0.1964
1 432 lj/cut 1.000 0.175 0.1964
1 433 lj/cut 1.000 0.175 0.1964
1 434 lj/cut 1.000 0.175 0.1964
1 435 lj/cut 1.000 0.175 0.1964
1 436 lj/cut 1.000 0.175 0.1964
1 437 lj/cut 1.000 0.175 0.1964
1 438 lj/cut 1.000 0.175 0.1964
1 439 lj/cut 1.000 0.175 0.1964
1 440 lj/cut 1.000 0.175 0.1964
1 441 lj/cut 1.000 0.175 0.1964
1 442 lj/cut 1.000 0.175 0.1964
1 443 lj/cut 1.000 0.175 0.1964
1 444 lj/cut 1.000 0.175 0.1964
1 445 lj/cut 1.000 0.175 0.1964
1 446 lj/cut 1.000 0.175 0.1964
1 447 lj/cut 1.000 0.175 0.1964
1 448 lj/cut 1.000 0.175 0.1964
1 449 lj/cut 1.000 0.175 0.1964
1 450 lj/cut 1.000 0.175 0.1964
2 2 lj/cut 1.000 0.500 0.5612
2 3 lj/cut 1.000 0.338 0.3788
2 4 lj/cut 1.000 0.338 0.3788
2 5 lj/cut 1.000 0.338 0.3788
2 6 lj/cut 1.000 0.338 0.3788
2 7 lj/cut 1.000 0.175 0.1964
2 8 lj/cut 1.000 0.175 0.1964
2 9 lj/cut 1.000 0.175 0.1964
2 10 lj/cut 1.000 0.175 0.1964
2 11 lj/cut 1.000 0.175 0.1964
2 12 lj/cut 1.000 0.175 0.1964
2 13 lj/cut 1.000 0.175 0.1964
2 14 lj/cut 1.000 0.175 0.1964
2 15 lj/cut 1.000 0.175 0.1964
2 16 lj/cut 1.000 0.175 0.1964
2 17 lj/cut 1.000 0.175 0.1964
2 18 lj/cut 1.000 0.175 0.1964
2 19 lj/cut 1.000 0.175 0.1964
2 20 lj/cut 1.000 0.175 0.1964
2 21 lj/cut 1.000 0.175 0.1964
2 22 lj/cut 1.000 0.175 0.1964
2 23 lj/cut 1.000 0.175 0.1964
2 24 lj/cut 1.000 0.175 0.1964
2 25 lj/cut 1.000 0.175 0.1964
2 26 lj/cut 1.000 0.175 0.1964
2 27 lj/cut 1.000 0.175 0.1964
2 28 lj/cut 1.000 0.175 0.1964
2 29 lj/cut 1.000 0.175 0.1964
2 30 lj/cut 1.000 0.175 0.1964
2 31 lj/cut 1.000 0.175 0.1964
2 32 lj/cut 1.000 0.175 0.1964
2 33 lj/cut 1.000 0.175 0.1964
2 34 lj/cut 1.000 0.175 0.1964
2 35 lj/cut 1.000 0.175 0.1964
2 36 lj/cut 1.000 0.175 0.1964
2 37 lj/cut 1.000 0.175 0.1964
2 38 lj/cut 1.000 0.175 0.1964
2 39 lj/cut 1.000 0.175 0.1964
2 40 lj/cut 1.000 0.175 0.1964
2 41 lj/cut 1.000 0.175 0.1964
2 42 lj/cut 1.000 0.175 0.1964
2 43 lj/cut 1.000 0.175 0.1964
2 44 lj/cut 1.000 0.175 0.1964
2 45 lj/cut 1.000 0.175 0.1964
2 46 lj/cut 1.000 0.175 0.1964
2 47 lj/cut 1.000 0.175 0.1964
2 48 lj/cut 1.000 0.175 0.1964
2 49 lj/cut 1.000 0.175 0.1964
2 50 lj/cut 1.000 0.175 0.1964
2 51 lj/cut 1.000 0.175 0.1964
2 52 lj/cut 1.000 0.175 0.1964
2 53 lj/cut 1.000 0.175 0.1964
2 54 lj/cut 1.000 0.175 0.1964
2 55 lj/cut 1.000 0.175 0.1964
2 56 lj/cut 1.000 0.175 0.1964
2 57 lj/cut 1.000 0.175 0.1964
2 58 lj/cut 1.000 0.175 0.1964
2 59 lj/cut 1.000 0.175 0.1964
2 60 lj/cut 1.000 0.175 0.1964
2 61 lj/cut 1.000 0.175 0.1964
2 62 lj/cut 1.000 0.175 0.1964
2 63 lj/cut 1.000 0.175 0.1964
2 64 lj/cut 1.000 0.175 0.1964
2 65 lj/cut 1.000 0.175 0.1964
2 66 lj/cut 1.000 0.175 0.1964
2 67 lj/cut 1.000 0.175 0.1964
2 68 lj/cut 1.000 0.175 0.1964
2 69 lj/cut 1.000 0.175 0.1964
2 70 lj/cut 1.000 0.175 0.1964
2 71 lj/cut 1.000 0.175 0.1964
2 72 lj/cut 1.000 0.175 0.1964
2 73 lj/cut 1.000 0.175 0.1964
2 74 lj/cut 1.000 0.175 0.1964
2 75 lj/cut 1.000 0.175 0.1964
2 76 lj/cut 1.000 0.175 0.1964
2 77 lj/cut 1.000 0.175 0.1964
2 78 lj/cut 1.000 0.175 0.1964
2 79 lj/cut 1.000 0.175 0.1964
2 80 lj/cut 1.000 0.175 0.1964
2 81 lj/cut 1.000 0.175 0.1964
2 82 lj/cut 1.000 0.175 0.1964
2 83 lj/cut 1.000 0.175 0.1964
2 84 lj/cut 1.000 0.175 0.1964
2 85 lj/cut 1.000 0.175 0.1964
2 86 lj/cut 1.000 0.175 0.1964
2 87 lj/cut 1.000 0.175 0.1964
2 88 lj/cut 1.000 0.175 0.1964
2 89 lj/cut 1.000 0.175 0.1964
2 90 lj/cut 1.000 0.175 0.1964
2 91 lj/cut 1.000 0.175 0.1964
2 92 lj/cut 1.000 0.175 0.1964
2 93 lj/cut 1.000 0.175 0.1964
2 94 lj/cut 1.000 0.175 0.1964
2 95 lj/cut 1.000 0.175 0.1964
2 96 lj/cut 1.000 0.175 0.1964
2 97 lj/cut 1.000 0.175 0.1964
2 98 lj/cut 1.000 0.175 0.1964
2 99 lj/cut 1.000 0.175 0.1964
2 100 lj/cut 1.000 0.175 0.1964
2 101 lj/cut 1.000 0.175 0.1964
2 102 lj/cut 1.000 0.175 0.1964
2 103 lj/cut 1.000 0.175 0.1964
2 104 lj/cut 1.000 0.175 0.1964
2 105 lj/cut 1.000 0.175 0.1964
2 106 lj/cut 1.000 0.175 0.1964
2 107 lj/cut 1.000 0.175 0.1964
2 108 lj/cut 1.000 0.175 0.1964
2 109 lj/cut 1.000 0.175 0.1964
2 110 lj/cut 1.000 0.175 0.1964
2 111 lj/cut 1.000 0.175 0.1964
2 112 lj/cut 1.000 0.175 0.1964
2 113 lj/cut 1.000 0.175 0.1964
2 114 lj/cut 1.000 0.175 0.1964
2 115 lj/cut 1.000 0.175 0.1964
2 116 lj/cut 1.000 0.175 0.1964
2 117 lj/cut 1.000 0.175 0.1964
2 118 lj/cut 1.000 0.175 0.1964
2 119 lj/cut 1.000 0.175 0.1964
2 120 lj/cut 1.000 0.175 0.1964
2 121 lj/cut 1.000 0.175 0.1964
2 122 lj/cut 1.000 0.175 0.1964
2 123 lj/cut 1.000 0.175 0.1964
2 124 lj/cut 1.000 0.175 0.1964
2 125 lj/cut 1.000 0.175 0.1964
2 126 lj/cut 1.000 0.175 0.1964
2 127 lj/cut 1.000 0.175 0.1964
2 128 lj/cut 1.000 0.175 0.1964
2 129 lj/cut 1.000 0.175 0.1964
2 130 lj/cut 1.000 0.175 0.1964
2 131 lj/cut 1.000 0.175 0.1964
2 132 lj/cut 1.000 0.175 0.1964
2 133 lj/cut 1.000 0.175 0.1964
2 134 lj/cut 1.000 0.175 0.1964
2 135 lj/cut 1.000 0.175 0.1964
2 136 lj/cut 1.000 0.175 0.1964
2 137 lj/cut 1.000 0.175 0.1964
2 138 lj/cut 1.000 0.175 0.1964
2 139 lj/cut 1.000 0.175 0.1964
2 140 lj/cut 1.000 0.175 0.1964
2 141 lj/cut 1.000 0.175 0.1964
2 142 lj/cut 1.000 0.175 0.1964
2 143 lj/cut 1.000 0.175 0.1964
2 144 lj/cut 1.000 0.175 0.1964
2 145 lj/cut 1.000 0.175 0.1964
2 146 lj/cut 1.000 0.175 0.1964
2 147 lj/cut 1.000 0.175 0.1964
2 148 lj/cut 1.000 0.175 0.1964
2 149 lj/cut 1.000 0.175 0.1964
2 150 lj/cut 1.000 0.175 0.1964
2 151 lj/cut 1.000 0.175 0.1964
2 152 lj/cut 1.000 0.175 0.1964
2 153 lj/cut 1.000 0.175 0.1964
2 154 lj/cut 1.000 0.175 0.1964
2 155 lj/cut 1.000 0.175 0.1964
2 156 lj/cut 1.000 0.175 0.1964
2 157 lj/cut 1.000 0.175 0.1964
2 158 lj/cut 1.000 0.175 0.1964
2 159 lj/cut 1.000 0.175 0.1964
2 160 lj/cut 1.000 0.175 0.1964
2 161 lj/cut 1.000 0.175 0.1964
2 162 lj/cut 1.000 0.175 0.1964
2 163 lj/cut 1.000 0.175 0.1964
2 164 lj/cut 1.000 0.175 0.1964
2 165 lj/cut 1.000 0.175 0.1964
2 166 lj/cut 1.000 0.175 0.1964
2 167 lj/cut 1.000 0.175 0.1964
2 168 lj/cut 1.000 0.175 0.1964
2 169 lj/cut 1.000 0.175 0.1964
2 170 lj/cut 1.000 0.175 0.1964
2 171 lj/cut 1.000 0.175 0.1964
2 172 lj/cut 1.000 0.175 0.1964
2 173 lj/cut 1.000 0.175 0.1964
2 174 lj/cut 1.000 0.175 0.1964
2 175 lj/cut 1.000 0.175 0.1964
2 176 lj/cut 1.000 0.175 0.1964
2 177 lj/cut 1.000 0.175 0.1964
2 178 lj/cut 1.000 0.175 0.1964
2 179 lj/cut 1.000 0.175 0.1964
2 180 lj/cut 1.000 0.175 0.1964
2 181 lj/cut 1.000 0.175 0.1964
2 182 lj/cut 1.000 0.175 0.1964
2 183 lj/cut 1.000 0.175 0.1964
2 184 lj/cut 1.000 0.175 0.1964
2 185 lj/cut 1.000 0.175 0.1964
2 186 lj/cut 1.000 0.175 0.1964
2 187 lj/cut 1.000 0.175 0.1964
2 188 lj/cut 1.000 0.175 0.1964
2 189 lj/cut 1.000 0.175 0.1964
2 190 lj/cut 1.000 0.175 0.1964
2 191 lj/cut 1.000 0.175 0.1964
2 192 lj/cut 1.000 0.175 0.1964
2 193 lj/cut 1.000 0.175 0.1964
2 194 lj/cut 1.000 0.175 0.1964
2 195 lj/cut 1.000 0.175 0.1964
2 196 lj/cut 1.000 0.175 0.1964
2 197 lj/cut 1.000 0.175 0.1964
2 198 lj/cut 1.000 0.175 0.1964
2 199 lj/cut 1.000 0.175 0.1964
2 200 lj/cut 1.000 0.175 0.1964
2 201 lj/cut 1.000 0.175 0.1964
2 202 lj/cut 1.000 0.175 0.1964
2 203 lj/cut 1.000 0.175 0.1964
2 204 lj/cut 1.000 0.175 0.1964
2 205 lj/cut 1.000 0.175 0.1964
2 206 lj/cut 1.000 0.175 0.1964
2 207 lj/cut 1.000 0.175 0.1964
2 208 lj/cut 1.000 0.175 0.1964
2 209 lj/cut 1.000 0.175 0.1964
2 210 lj/cut 1.000 0.175 0.1964
2 211 lj/cut 1.000 0.175 0.1964
2 212 lj/cut 1.000 0.175 0.1964
2 213 lj/cut 1.000 0.175 0.1964
2 214 lj/cut 1.000 0.175 0.1964
2 215 lj/cut 1.000 0.175 0.1964
2 216 lj/cut 1.000 0.175 0.1964
2 217 lj/cut 1.000 0.175 0.1964
2 218 lj/cut 1.000 0.175 0.1964
2 219 lj/cut 1.000 0.175 0.1964
2 220 lj/cut 1.000 0.175 0.1964
2 221 lj/cut 1.000 0.175 0.1964
2 222 lj/cut 1.000 0.175 0.1964
2 223 lj/cut 1.000 0.175 0.1964
2 224 lj/cut 1.000 0.175 0.1964
2 225 lj/cut 1.000 0.175 0.1964
2 226 lj/cut 1.000 0.175 0.1964
2 227 lj/cut 1.000 0.175 0.1964
2 228 lj/cut 1.000 0.175 0.1964
2 229 lj/cut 1.000 0.175 0.1964
2 230 lj/cut 1.000 0.175 0.1964
2 231 lj/cut 1.000 0.175 0.1964
2 232 lj/cut 1.000 0.175 0.1964
2 233 lj/cut 1.000 0.175 0.1964
2 234 lj/cut 1.000 0.175 0.1964
2 235 lj/cut 1.000 0.175 0.1964
2 236 lj/cut 1.000 0.175 0.1964
2 237 lj/cut 1.000 0.175 0.1964
2 238 lj/cut 1.000 0.175 0.1964
2 239 lj/cut 1.000 0.175 0.1964
2 240 lj/cut 1.000 0.175 0.1964
2 241 lj/cut 1.000 0.175 0.1964
2 242 lj/cut 1.000 0.175 0.1964
2 243 lj/cut 1.000 0.175 0.1964
2 244 lj/cut 1.000 0.175 0.1964
2 245 lj/cut 1.000 0.175 0.1964
2 246 lj/cut 1.000 0.175 0.1964
2 247 lj/cut 1.000 0.175 0.1964
2 248 lj/cut 1.000 0.175 0.1964
2 249 lj/cut 1.000 0.175 0.1964
2 250 lj/cut 1.000 0.175 0.1964
2 251 lj/cut 1.000 0.175 0.1964
2 252 lj/cut 1.000 0.175 0.1964
2 253 lj/cut 1.000 0.175 0.1964
2 254 lj/cut 1.000 0.175 0.1964
2 255 lj/cut 1.000 0.175 0.1964
2 256 lj/cut 1.000 0.175 0.1964
2 257 lj/cut 1.000 0.175 0.1964
2 258 lj/cut 1.000 0.175 0.1964
2 259 lj/cut 1.000 0.175 0.1964
2 260 lj/cut 1.000 0.175 0.1964
2 261 lj/cut 1.000 0.175 0.1964
2 262 lj/cut 1.000 0.175 0.1964
2 263 lj/cut 1.000 0.175 0.1964
2 264 lj/cut 1.000 0.175 0.1964
2 265 lj/cut 1.000 0.175 0.1964
2 266 lj/cut 1.000 0.175 0.1964
2 267 lj/cut 1.000 0.175 0.1964
2 268 lj/cut 1.000 0.175 0.1964
2 269 lj/cut 1.000 0.175 0.1964
2 270 lj/cut 1.000 0.175 0.1964
2 271 lj/cut 1.000 0.175 0.1964
2 272 lj/cut 1.000 0.175 0.1964
2 273 lj/cut 1.000 0.175 0.1964
2 274 lj/cut 1.000 0.175 0.1964
2 275 lj/cut 1.000 0.175 0.1964
2 276 lj/cut 1.000 0.175 0.1964
2 277 lj/cut 1.000 0.175 0.1964
2 278 lj/cut 1.000 0.175 0.1964
2 279 lj/cut 1.000 0.175 0.1964
2 280 lj/cut 1.000 0.175 0.1964
2 281 lj/cut 1.000 0.175 0.1964
2 282 lj/cut 1.000 0.175 0.1964
2 283 lj/cut 1.000 0.175 0.1964
2 284 lj/cut 1.000 0.175 0.1964
2 285 lj/cut 1.000 0.175 0.1964
2 286 lj/cut 1.000 0.175 0.1964
2 287 lj/cut 1.000 0.175 0.1964
2 288 lj/cut 1.000 0.175 0.1964
2 289 lj/cut 1.000 0.175 0.1964
2 290 lj/cut 1.000 0.175 0.1964
2 291 lj/cut 1.000 0.175 0.1964
2 292 lj/cut 1.000 0.175 0.1964
2 293 lj/cut 1.000 0.175 0.1964
2 294 lj/cut 1.000 0.175 0.1964
2 295 lj/cut 1.000 0.175 0.1964
2 296 lj/cut 1.000 0.175 0.1964
2 297 lj/cut 1.000 0.175 0.1964
2 298 lj/cut 1.000 0.175 0.1964
2 299 lj/cut 1.000 0.175 0.1964
2 300 lj/cut 1.000 0.175 0.1964
2 301 lj/cut 1.000 0.175 0.1964
2 302 lj/cut 1.000 0.175 0.1964
2 303 lj/cut 1.000 0.175 0.1964
2 304 lj/cut 1.000 0.175 0.1964
2 305 lj/cut 1.000 0.175 0.1964
2 306 lj/cut 1.000 0.175 0.1964
2 307 lj/cut 1.000 0.175 0.1964
2 308 lj/cut 1.000 0.175 0.1964
2 309 lj/cut 1.000 0.175 0.1964
2 310 lj/cut 1.000 0.175 0.1964
2 311 lj/cut 1.000 0.175 0.1964
2 312 lj/cut 1.000 0.175 0.1964
2 313 lj/cut 1.000 0.175 0.1964
2 314 lj/cut 1.000 0.175 0.1964
2 315 lj/cut 1.000 0.175 0.1964
2 316 lj/cut 1.000 0.175 0.1964
2 317 lj/cut 1.000 0.175 0.1964
2 318 lj/cut 1.000 0.175 0.1964
2 319 lj/cut 1.000 0.175 0.1964
2 320 lj/cut 1.000 0.175 0.1964
2 321 lj/cut 1.000 0.175 0.1964
2 322 lj/cut 1.000 0.175 0.1964
2 323 lj/cut 1.000 0.175 0.1964
2 324 lj/cut 1.000 0.175 0.1964
2 325 lj/cut 1.000 0.175 0.1964
2 326 lj/cut 1.000 0.175 0.1964
2 327 lj/cut 1.000 0.175 0.1964
2 328 lj/cut 1.000 0.175 0.1964
2 329 lj/cut 1.000 0.175 0.1964
2 330 lj/cut 1.000 0.175 0.1964
2 331 lj/cut 1.000 0.175 0.1964
2 332 lj/cut 1.000 0.175 0.1964
2 333 lj/cut 1.000 0.175 0.1964
2 334 lj/cut 1.000 0.175 0.1964
2 335 lj/cut 1.000 0.175 0.1964
2 336 lj/cut 1.000 0.175 0.1964
2 337 lj/cut 1.000 0.175 0.1964
2 338 lj/cut 1.000 0.175 0.1964
2 339 lj/cut 1.000 0.175 0.1964
2 340 lj/cut 1.000 0.175 0.1964
2 341 lj/cut 1.000 0.175 0.1964
2 342 lj/cut 1.000 0.175 0.1964
2 343 lj/cut 1.000 0.175 0.1964
2 344 lj/cut 1.000 0.175 0.1964
2 345 lj/cut 1.000 0.175 0.1964
2 346 lj/cut 1.000 0.175 0.1964
2 347 lj/cut 1.000 0.175 0.1964
2 348 lj/cut 1.000 0.175 0.1964
2 349 lj/cut 1.000 0.175 0.1964
2 350 lj/cut 1.000 0.175 0.1964
2 351 lj/cut 1.000 0.175 0.1964
2 352 lj/cut 1.000 0.175 0.1964
2 353 lj/cut 1.000 0.175 0.1964
2 354 lj/cut 1.000 0.175 0.1964
2 355 lj/cut 1.000 0.175 0.1964
2 356 lj/cut 1.000 0.175 0.1964
2 357 lj/cut 1.000 0.175 0.1964
2 358 lj/cut 1.000 0.175 0.1964
2 359 lj/cut 1.000 0.175 0.1964
2 360 lj/cut 1.000 0.175 0.1964
2 361 lj/cut 1.000 0.175 0.1964
2 362 lj/cut 1.000 0.175 0.1964
2 363 lj/cut 1.000 0.175 0.1964
2 364 lj/cut 1.000 0.175 0.1964
2 365 lj/cut 1.000 0.175 0.1964
2 366 lj/cut 1.000 0.175 0.1964
2 367 lj/cut 1.000 0.175 0.1964
2 368 lj/cut 1.000 0.175 0.1964
2 369 lj/cut 1.000 0.175 0.1964
2 370 lj/cut 1.000 0.175 0.1964
2 371 lj/cut 1.000 0.175 0.1964
2 372 lj/cut 1.000 0.175 0.1964
2 373 lj/cut 1.000 0.175 0.1964
2 374 lj/cut 1.000 0.175 0.1964
2 375 lj/cut 1.000 0.175 0.1964
2 376 lj/cut 1.000 0.175 0.1964
2 377 lj/cut 1.000 0.175 0.1964
2 378 lj/cut 1.000 0.175 0.1964
2 379 lj/cut 1.000 0.175 0.1964
2 380 lj/cut 1.000 0.175 0.1964
2 381 lj/cut 1.000 0.175 0.1964
2 382 lj/cut 1.000 0.175 0.1964
2 383 lj/cut 1.000 0.175 0.1964
2 384 lj/cut 1.000 0.175 0.1964
2 385 lj/cut 1.000 0.175 0.1964
2 386 lj/cut 1.000 0.175 0.1964
2 387 lj/cut 1.000 0.175 0.1964
2 388 lj/cut 1.000 0.175 0.1964
2 389 lj/cut 1.000 0.175 0.1964
2 390 lj/cut 1.000 0.175 0.1964
2 391 lj/cut 1.000 0.175 0.1964
2 392 lj/cut 1.000 0.175 0.1964
2 393 lj/cut 1.000 0.175 0.1964
2 394 lj/cut 1.000 0.175 0.1964
2 395 lj/cut 1.000 0.175 0.1964
2 396 lj/cut 1.000 0.175 0.1964
2 397 lj/cut 1.000 0.175 0.1964
2 398 lj/cut 1.000 0.175 0.1964
2 399 lj/cut 1.000 0.175 0.1964
2 400 lj/cut 1.000 0.175 0.1964
2 401 lj/cut 1.000 0.175 0.1964
2 402 lj/cut 1.000 0.175 0.1964
2 403 lj/cut 1.000 0.175 0.1964
2 404 lj/cut 1.000 0.175 0.1964
2 405 lj/cut 1.000 0.175 0.1964
2 406 lj/cut 1.000 0.175 0.1964
2 407 lj/cut 1.000 0.175 0.1964
2 408 lj/cut 1.000 0.175 0.1964
2 409 lj/cut 1.000 0.175 0.1964
2 410 lj/cut 1.000 0.175 0.1964
2 411 lj/cut 1.000 0.175 0.1964
2 412 lj/cut 1.000 0.175 0.1964
2 413 lj/cut 1.000 0.175 0.1964
2 414 lj/cut 1.000 0.175 0.1964
2 415 lj/cut 1.000 0.175 0.1964
2 416 lj/cut 1.000 0.175 0.1964
2 417 lj/cut 1.000 0.175 0.1964
2 418 lj/cut 1.000 0.175 0.1964
2 419 lj/cut 1.000 0.175 0.1964
2 420 lj/cut 1.000 0.175 0.1964
2 421 lj/cut 1.000 0.175 0.1964
2 422 lj/cut 1.000 0.175 0.1964
2 423 lj/cut 1.000 0.175 0.1964
2 424 lj/cut 1.000 0.175 0.1964
2 425 lj/cut 1.000 0.175 0.1964
2 426 lj/cut 1.000 0.175 0.1964
2 427 lj/cut 1.000 0.175 0.1964
2 428 lj/cut 1.000 0.175 0.1964
2 429 lj/cut 1.000 0.175 0.1964
2 430 lj/cut 1.000 0.175 0.1964
2 431 lj/cut 1.000 0.175 0.1964
2 432 lj/cut 1.000 0.175 0.1964
2 433 lj/cut 1.000 0.175 0.1964
2 434 lj/cut 1.000 0.175 0.1964
2 435 lj/cut 1.000 0.175 0.1964
2 436 lj/cut 1.000 0.175 0.1964
2 437 lj/cut 1.000 0.175 0.1964
2 438 lj/cut 1.000 0.175 0.1964
2 439 lj/cut 1.000 0.175 0.1964
2 440 lj/cut 1.000 0.175 0.1964
2 441 lj/cut 1.000 0.175 0.1964
2 442 lj/cut 1.000 0.175 0.1964
2 443 lj/cut 1.000 0.175 0.1964
2 444 lj/cut 1.000 0.175 0.1964
2 445 lj/cut 1.000 0.175 0.1964
2 446 lj/cut 1.000 0.175 0.1964
2 447 lj/cut 1.000 0.175 0.1964
2 448 lj/cut 1.000 0.175 0.1964
2 449 lj/cut 1.000 0.175 0.1964
2 450 lj/cut 1.000 0.175 0.1964
3 3 lj/cut 1.000 0.100 0.1122
3 4 lj/cut 1.000 0.050 0.0561
3 5 lj/cut 1.000 0.175 0.1964
3 6 lj/cut 1.000 0.175 0.1964
3 7 lj/cut 1.000 0.175 0.1964
3 8 lj/cut 1.000 0.175 0.1964
3 9 lj/cut 1.000 0.175 0.1964
3 10 lj/cut 1.000 0.175 0.1964
3 11 lj/cut 1.000 0.175 0.1964
3 12 lj/cut 1.000 0.175 0.1964
3 13 lj/cut 1.000 0.175 0.1964
3 14 lj/cut 1.000 0.175 0.1964
3 15 lj/cut 1.000 0.175 0.1964
3 16 lj/cut 1.000 0.175 0.1964
3 17 lj/cut 1.000 0.175 0.1964
3 18 lj/cut 1.000 0.175 0.1964
3 19 lj/cut 1.000 0.175 0.1964
3 20 lj/cut 1.000 0.175 0.1964
3 21 lj/cut 1.000 0.175 0.1964
3 22 lj/cut 1.000 0.175 0.1964
3 23 lj/cut 1.000 0.175 0.1964
3 24 lj/cut 1.000 0.175 0.1964
3 25 lj/cut 1.000 0.175 0.1964
3 26 lj/cut 1.000 0.175 0.1964
3 27 lj/cut 1.000 0.175 0.1964
3 28 lj/cut 1.000 0.175 0.1964
3 29 lj/cut 1.000 0.175 0.1964
3 30 lj/cut 1.000 0.175 0.1964
3 31 lj/cut 1.000 0.175 0.1964
3 32 lj/cut 1.000 0.175 0.1964
3 33 lj/cut 1.000 0.175 0.1964
3 34 lj/cut 1.000 0.175 0.1964
3 35 lj/cut 1.000 0.175 0.1964
3 36 lj/cut 1.000 0.175 0.1964
3 37 lj/cut 1.000 0.175 0.1964
3 38 lj/cut 1.000 0.175 0.1964
3 39 lj/cut 1.000 0.175 0.1964
3 40 lj/cut 1.000 0.175 0.1964