#LAMMPS data file for 2000 particles on a sphere with params 8 

27328 atoms
234 atom types
7 bonds
5 bond types
5 angles
3 angle types

-4.200000e+00 4.200000e+00 xlo xhi
-4.200000e+00 4.200000e+00 ylo yhi
-4.200000e+00 4.200000e+00 zlo zhi


PairIJ Coeffs # lj/cut
# atom_type_1	atom_type_1	energy	sigma	truncated=sigma*2^(1/6)
1 1 lj/cut 1.000 0.080 0.0898
1 2 lj/cut 1.000 0.128 0.1431
1 3 lj/cut 1.000 0.128 0.1431
1 4 lj/cut 1.000 0.128 0.1431
1 5 lj/cut 1.000 0.128 0.1431
1 6 lj/cut 1.000 0.128 0.1431
1 7 lj/cut 1.000 0.175 0.1964
1 8 lj/cut 1.000 0.175 0.1964
1 9 lj/cut 1.000 0.175 0.1964
1 10 lj/cut 1.000 0.175 0.1964
1 11 lj/cut 1.000 0.175 0.1964
1 12 lj/cut 1.000 0.175 0.1964
1 13 lj/cut 1.000 0.175 0.1964
1 14 lj/cut 1.000 0.175 0.1964
1 15 lj/cut 1.000 0.175 0.1964
1 16 lj/cut 1.000 0.175 0.1964
1 17 lj/cut 1.000 0.175 0.1964
1 18 lj/cut 1.000 0.175 0.1964
1 19 lj/cut 1.000 0.175 0.1964
1 20 lj/cut 1.000 0.175 0.1964
1 21 lj/cut 1.000 0.175 0.1964
1 22 lj/cut 1.000 0.175 0.1964
1 23 lj/cut 1.000 0.175 0.1964
1 24 lj/cut 1.000 0.175 0.1964
1 25 lj/cut 1.000 0.175 0.1964
1 26 lj/cut 1.000 0.175 0.1964
1 27 lj/cut 1.000 0.175 0.1964
1 28 lj/cut 1.000 0.175 0.1964
1 29 lj/cut 1.000 0.175 0.1964
1 30 lj/cut 1.000 0.175 0.1964
1 31 lj/cut 1.000 0.175 0.1964
1 32 lj/cut 1.000 0.175 0.1964
1 33 lj/cut 1.000 0.175 0.1964
1 34 lj/cut 1.000 0.175 0.1964
1 35 lj/cut 1.000 0.175 0.1964
1 36 lj/cut 1.000 0.175 0.1964
1 37 lj/cut 1.000 0.175 0.1964
1 38 lj/cut 1.000 0.175 0.1964
1 39 lj/cut 1.000 0.175 0.1964
1 40 lj/cut 1.000 0.175 0.1964
1 41 lj/cut 1.000 0.175 0.1964
1 42 lj/cut 1.000 0.175 0.1964
1 43 lj/cut 1.000 0.175 0.1964
1 44 lj/cut 1.000 0.175 0.1964
1 45 lj/cut 1.000 0.175 0.1964
1 46 lj/cut 1.000 0.175 0.1964
1 47 lj/cut 1.000 0.175 0.1964
1 48 lj/cut 1.000 0.175 0.1964
1 49 lj/cut 1.000 0.175 0.1964
1 50 lj/cut 1.000 0.175 0.1964
1 51 lj/cut 1.000 0.175 0.1964
1 52 lj/cut 1.000 0.175 0.1964
1 53 lj/cut 1.000 0.175 0.1964
1 54 lj/cut 1.000 0.175 0.1964
1 55 lj/cut 1.000 0.175 0.1964
1 56 lj/cut 1.000 0.175 0.1964
1 57 lj/cut 1.000 0.175 0.1964
1 58 lj/cut 1.000 0.175 0.1964
1 59 lj/cut 1.000 0.175 0.1964
1 60 lj/cut 1.000 0.175 0.1964
1 61 lj/cut 1.000 0.175 0.1964
1 62 lj/cut 1.000 0.175 0.1964
1 63 lj/cut 1.000 0.175 0.1964
1 64 lj/cut 1.000 0.175 0.1964
1 65 lj/cut 1.000 0.175 0.1964
1 66 lj/cut 1.000 0.175 0.1964
1 67 lj/cut 1.000 0.175 0.1964
1 68 lj/cut 1.000 0.175 0.1964
1 69 lj/cut 1.000 0.175 0.1964
1 70 lj/cut 1.000 0.175 0.1964
1 71 lj/cut 1.000 0.175 0.1964
1 72 lj/cut 1.000 0.175 0.1964
1 73 lj/cut 1.000 0.175 0.1964
1 74 lj/cut 1.000 0.175 0.1964
1 75 lj/cut 1.000 0.175 0.1964
1 76 lj/cut 1.000 0.175 0.1964
1 77 lj/cut 1.000 0.175 0.1964
1 78 lj/cut 1.000 0.175 0.1964
1 79 lj/cut 1.000 0.175 0.1964
1 80 lj/cut 1.000 0.175 0.1964
1 81 lj/cut 1.000 0.175 0.1964
1 82 lj/cut 1.000 0.175 0.1964
1 83 lj/cut 1.000 0.175 0.1964
1 84 lj/cut 1.000 0.175 0.1964
1 85 lj/cut 1.000 0.175 0.1964
1 86 lj/cut 1.000 0.175 0.1964
1 87 lj/cut 1.000 0.175 0.1964
1 88 lj/cut 1.000 0.175 0.1964
1 89 lj/cut 1.000 0.175 0.1964
1 90 lj/cut 1.000 0.175 0.1964
1 91 lj/cut 1.000 0.175 0.1964
1 92 lj/cut 1.000 0.175 0.1964
1 93 lj/cut 1.000 0.175 0.1964
1 94 lj/cut 1.000 0.175 0.1964
1 95 lj/cut 1.000 0.175 0.1964
1 96 lj/cut 1.000 0.175 0.1964
1 97 lj/cut 1.000 0.175 0.1964
1 98 lj/cut 1.000 0.175 0.1964
1 99 lj/cut 1.000 0.175 0.1964
1 100 lj/cut 1.000 0.175 0.1964
1 101 lj/cut 1.000 0.175 0.1964
1 102 lj/cut 1.000 0.175 0.1964
1 103 lj/cut 1.000 0.175 0.1964
1 104 lj/cut 1.000 0.175 0.1964
1 105 lj/cut 1.000 0.175 0.1964
1 106 lj/cut 1.000 0.175 0.1964
1 107 lj/cut 1.000 0.175 0.1964
1 108 lj/cut 1.000 0.175 0.1964
1 109 lj/cut 1.000 0.175 0.1964
1 110 lj/cut 1.000 0.175 0.1964
1 111 lj/cut 1.000 0.175 0.1964
1 112 lj/cut 1.000 0.175 0.1964
1 113 lj/cut 1.000 0.175 0.1964
1 114 lj/cut 1.000 0.175 0.1964
1 115 lj/cut 1.000 0.175 0.1964
1 116 lj/cut 1.000 0.175 0.1964
1 117 lj/cut 1.000 0.175 0.1964
1 118 lj/cut 1.000 0.175 0.1964
1 119 lj/cut 1.000 0.175 0.1964
1 120 lj/cut 1.000 0.175 0.1964
1 121 lj/cut 1.000 0.175 0.1964
1 122 lj/cut 1.000 0.175 0.1964
1 123 lj/cut 1.000 0.175 0.1964
1 124 lj/cut 1.000 0.175 0.1964
1 125 lj/cut 1.000 0.175 0.1964
1 126 lj/cut 1.000 0.175 0.1964
1 127 lj/cut 1.000 0.175 0.1964
1 128 lj/cut 1.000 0.175 0.1964
1 129 lj/cut 1.000 0.175 0.1964
1 130 lj/cut 1.000 0.175 0.1964
1 131 lj/cut 1.000 0.175 0.1964
1 132 lj/cut 1.000 0.175 0.1964
1 133 lj/cut 1.000 0.175 0.1964
1 134 lj/cut 1.000 0.175 0.1964
1 135 lj/cut 1.000 0.175 0.1964
1 136 lj/cut 1.000 0.175 0.1964
1 137 lj/cut 1.000 0.175 0.1964
1 138 lj/cut 1.000 0.175 0.1964
1 139 lj/cut 1.000 0.175 0.1964
1 140 lj/cut 1.000 0.175 0.1964
1 141 lj/cut 1.000 0.175 0.1964
1 142 lj/cut 1.000 0.175 0.1964
1 143 lj/cut 1.000 0.175 0.1964
1 144 lj/cut 1.000 0.175 0.1964
1 145 lj/cut 1.000 0.175 0.1964
1 146 lj/cut 1.000 0.175 0.1964
1 147 lj/cut 1.000 0.175 0.1964
1 148 lj/cut 1.000 0.175 0.1964
1 149 lj/cut 1.000 0.175 0.1964
1 150 lj/cut 1.000 0.175 0.1964
1 151 lj/cut 1.000 0.175 0.1964
1 152 lj/cut 1.000 0.175 0.1964
1 153 lj/cut 1.000 0.175 0.1964
1 154 lj/cut 1.000 0.175 0.1964
1 155 lj/cut 1.000 0.175 0.1964
1 156 lj/cut 1.000 0.175 0.1964
1 157 lj/cut 1.000 0.175 0.1964
1 158 lj/cut 1.000 0.175 0.1964
1 159 lj/cut 1.000 0.175 0.1964
1 160 lj/cut 1.000 0.175 0.1964
1 161 lj/cut 1.000 0.175 0.1964
1 162 lj/cut 1.000 0.175 0.1964
1 163 lj/cut 1.000 0.175 0.1964
1 164 lj/cut 1.000 0.175 0.1964
1 165 lj/cut 1.000 0.175 0.1964
1 166 lj/cut 1.000 0.175 0.1964
1 167 lj/cut 1.000 0.175 0.1964
1 168 lj/cut 1.000 0.175 0.1964
1 169 lj/cut 1.000 0.175 0.1964
1 170 lj/cut 1.000 0.175 0.1964
1 171 lj/cut 1.000 0.175 0.1964
1 172 lj/cut 1.000 0.175 0.1964
1 173 lj/cut 1.000 0.175 0.1964
1 174 lj/cut 1.000 0.175 0.1964
1 175 lj/cut 1.000 0.175 0.1964
1 176 lj/cut 1.000 0.175 0.1964
1 177 lj/cut 1.000 0.175 0.1964
1 178 lj/cut 1.000 0.175 0.1964
1 179 lj/cut 1.000 0.175 0.1964
1 180 lj/cut 1.000 0.175 0.1964
1 181 lj/cut 1.000 0.175 0.1964
1 182 lj/cut 1.000 0.175 0.1964
1 183 lj/cut 1.000 0.175 0.1964
1 184 lj/cut 1.000 0.175 0.1964
1 185 lj/cut 1.000 0.175 0.1964
1 186 lj/cut 1.000 0.175 0.1964
1 187 lj/cut 1.000 0.175 0.1964
1 188 lj/cut 1.000 0.175 0.1964
1 189 lj/cut 1.000 0.175 0.1964
1 190 lj/cut 1.000 0.175 0.1964
1 191 lj/cut 1.000 0.175 0.1964
1 192 lj/cut 1.000 0.175 0.1964
1 193 lj/cut 1.000 0.175 0.1964
1 194 lj/cut 1.000 0.175 0.1964
1 195 lj/cut 1.000 0.175 0.1964
1 196 lj/cut 1.000 0.175 0.1964
1 197 lj/cut 1.000 0.175 0.1964
1 198 lj/cut 1.000 0.175 0.1964
1 199 lj/cut 1.000 0.175 0.1964
1 200 lj/cut 1.000 0.175 0.1964
1 201 lj/cut 1.000 0.175 0.1964
1 202 lj/cut 1.000 0.175 0.1964
1 203 lj/cut 1.000 0.175 0.1964
1 204 lj/cut 1.000 0.175 0.1964
1 205 lj/cut 1.000 0.175 0.1964
1 206 lj/cut 1.000 0.175 0.1964
1 207 lj/cut 1.000 0.175 0.1964
1 208 lj/cut 1.000 0.175 0.1964
1 209 lj/cut 1.000 0.175 0.1964
1 210 lj/cut 1.000 0.175 0.1964
1 211 lj/cut 1.000 0.175 0.1964
1 212 lj/cut 1.000 0.175 0.1964
1 213 lj/cut 1.000 0.175 0.1964
1 214 lj/cut 1.000 0.175 0.1964
1 215 lj/cut 1.000 0.175 0.1964
1 216 lj/cut 1.000 0.175 0.1964
1 217 lj/cut 1.000 0.175 0.1964
1 218 lj/cut 1.000 0.175 0.1964
1 219 lj/cut 1.000 0.175 0.1964
1 220 lj/cut 1.000 0.175 0.1964
1 221 lj/cut 1.000 0.175 0.1964
1 222 lj/cut 1.000 0.175 0.1964
1 223 lj/cut 1.000 0.175 0.1964
1 224 lj/cut 1.000 0.175 0.1964
1 225 lj/cut 1.000 0.175 0.1964
1 226 lj/cut 1.000 0.175 0.1964
1 227 lj/cut 1.000 0.175 0.1964
1 228 lj/cut 1.000 0.175 0.1964
1 229 lj/cut 1.000 0.175 0.1964
1 230 lj/cut 1.000 0.175 0.1964
1 231 lj/cut 1.000 0.175 0.1964
1 232 lj/cut 1.000 0.175 0.1964
1 233 lj/cut 1.000 0.175 0.1964
1 234 lj/cut 1.000 0.175 0.1964
2 2 lj/cut 1.000 0.500 0.5612
2 3 lj/cut 1.000 0.338 0.3788
2 4 lj/cut 1.000 0.338 0.3788
2 5 lj/cut 1.000 0.338 0.3788
2 6 lj/cut 1.000 0.338 0.3788
2 7 lj/cut 1.000 0.175 0.1964
2 8 lj/cut 1.000 0.175 0.1964
2 9 lj/cut 1.000 0.175 0.1964
2 10 lj/cut 1.000 0.175 0.1964
2 11 lj/cut 1.000 0.175 0.1964
2 12 lj/cut 1.000 0.175 0.1964
2 13 lj/cut 1.000 0.175 0.1964
2 14 lj/cut 1.000 0.175 0.1964
2 15 lj/cut 1.000 0.175 0.1964
2 16 lj/cut 1.000 0.175 0.1964
2 17 lj/cut 1.000 0.175 0.1964
2 18 lj/cut 1.000 0.175 0.1964
2 19 lj/cut 1.000 0.175 0.1964
2 20 lj/cut 1.000 0.175 0.1964
2 21 lj/cut 1.000 0.175 0.1964
2 22 lj/cut 1.000 0.175 0.1964
2 23 lj/cut 1.000 0.175 0.1964
2 24 lj/cut 1.000 0.175 0.1964
2 25 lj/cut 1.000 0.175 0.1964
2 26 lj/cut 1.000 0.175 0.1964
2 27 lj/cut 1.000 0.175 0.1964
2 28 lj/cut 1.000 0.175 0.1964
2 29 lj/cut 1.000 0.175 0.1964
2 30 lj/cut 1.000 0.175 0.1964
2 31 lj/cut 1.000 0.175 0.1964
2 32 lj/cut 1.000 0.175 0.1964
2 33 lj/cut 1.000 0.175 0.1964
2 34 lj/cut 1.000 0.175 0.1964
2 35 lj/cut 1.000 0.175 0.1964
2 36 lj/cut 1.000 0.175 0.1964
2 37 lj/cut 1.000 0.175 0.1964
2 38 lj/cut 1.000 0.175 0.1964
2 39 lj/cut 1.000 0.175 0.1964
2 40 lj/cut 1.000 0.175 0.1964
2 41 lj/cut 1.000 0.175 0.1964
2 42 lj/cut 1.000 0.175 0.1964
2 43 lj/cut 1.000 0.175 0.1964
2 44 lj/cut 1.000 0.175 0.1964
2 45 lj/cut 1.000 0.175 0.1964
2 46 lj/cut 1.000 0.175 0.1964
2 47 lj/cut 1.000 0.175 0.1964
2 48 lj/cut 1.000 0.175 0.1964
2 49 lj/cut 1.000 0.175 0.1964
2 50 lj/cut 1.000 0.175 0.1964
2 51 lj/cut 1.000 0.175 0.1964
2 52 lj/cut 1.000 0.175 0.1964
2 53 lj/cut 1.000 0.175 0.1964
2 54 lj/cut 1.000 0.175 0.1964
2 55 lj/cut 1.000 0.175 0.1964
2 56 lj/cut 1.000 0.175 0.1964
2 57 lj/cut 1.000 0.175 0.1964
2 58 lj/cut 1.000 0.175 0.1964
2 59 lj/cut 1.000 0.175 0.1964
2 60 lj/cut 1.000 0.175 0.1964
2 61 lj/cut 1.000 0.175 0.1964
2 62 lj/cut 1.000 0.175 0.1964
2 63 lj/cut 1.000 0.175 0.1964
2 64 lj/cut 1.000 0.175 0.1964
2 65 lj/cut 1.000 0.175 0.1964
2 66 lj/cut 1.000 0.175 0.1964
2 67 lj/cut 1.000 0.175 0.1964
2 68 lj/cut 1.000 0.175 0.1964
2 69 lj/cut 1.000 0.175 0.1964
2 70 lj/cut 1.000 0.175 0.1964
2 71 lj/cut 1.000 0.175 0.1964
2 72 lj/cut 1.000 0.175 0.1964
2 73 lj/cut 1.000 0.175 0.1964
2 74 lj/cut 1.000 0.175 0.1964
2 75 lj/cut 1.000 0.175 0.1964
2 76 lj/cut 1.000 0.175 0.1964
2 77 lj/cut 1.000 0.175 0.1964
2 78 lj/cut 1.000 0.175 0.1964
2 79 lj/cut 1.000 0.175 0.1964
2 80 lj/cut 1.000 0.175 0.1964
2 81 lj/cut 1.000 0.175 0.1964
2 82 lj/cut 1.000 0.175 0.1964
2 83 lj/cut 1.000 0.175 0.1964
2 84 lj/cut 1.000 0.175 0.1964
2 85 lj/cut 1.000 0.175 0.1964
2 86 lj/cut 1.000 0.175 0.1964
2 87 lj/cut 1.000 0.175 0.1964
2 88 lj/cut 1.000 0.175 0.1964
2 89 lj/cut 1.000 0.175 0.1964
2 90 lj/cut 1.000 0.175 0.1964
2 91 lj/cut 1.000 0.175 0.1964
2 92 lj/cut 1.000 0.175 0.1964
2 93 lj/cut 1.000 0.175 0.1964
2 94 lj/cut 1.000 0.175 0.1964
2 95 lj/cut 1.000 0.175 0.1964
2 96 lj/cut 1.000 0.175 0.1964
2 97 lj/cut 1.000 0.175 0.1964
2 98 lj/cut 1.000 0.175 0.1964
2 99 lj/cut 1.000 0.175 0.1964
2 100 lj/cut 1.000 0.175 0.1964
2 101 lj/cut 1.000 0.175 0.1964
2 102 lj/cut 1.000 0.175 0.1964
2 103 lj/cut 1.000 0.175 0.1964
2 104 lj/cut 1.000 0.175 0.1964
2 105 lj/cut 1.000 0.175 0.1964
2 106 lj/cut 1.000 0.175 0.1964
2 107 lj/cut 1.000 0.175 0.1964
2 108 lj/cut 1.000 0.175 0.1964
2 109 lj/cut 1.000 0.175 0.1964
2 110 lj/cut 1.000 0.175 0.1964
2 111 lj/cut 1.000 0.175 0.1964
2 112 lj/cut 1.000 0.175 0.1964
2 113 lj/cut 1.000 0.175 0.1964
2 114 lj/cut 1.000 0.175 0.1964
2 115 lj/cut 1.000 0.175 0.1964
2 116 lj/cut 1.000 0.175 0.1964
2 117 lj/cut 1.000 0.175 0.1964
2 118 lj/cut 1.000 0.175 0.1964
2 119 lj/cut 1.000 0.175 0.1964
2 120 lj/cut 1.000 0.175 0.1964
2 121 lj/cut 1.000 0.175 0.1964
2 122 lj/cut 1.000 0.175 0.1964
2 123 lj/cut 1.000 0.175 0.1964
2 124 lj/cut 1.000 0.175 0.1964
2 125 lj/cut 1.000 0.175 0.1964
2 126 lj/cut 1.000 0.175 0.1964
2 127 lj/cut 1.000 0.175 0.1964
2 128 lj/cut 1.000 0.175 0.1964
2 129 lj/cut 1.000 0.175 0.1964
2 130 lj/cut 1.000 0.175 0.1964
2 131 lj/cut 1.000 0.175 0.1964
2 132 lj/cut 1.000 0.175 0.1964
2 133 lj/cut 1.000 0.175 0.1964
2 134 lj/cut 1.000 0.175 0.1964
2 135 lj/cut 1.000 0.175 0.1964
2 136 lj/cut 1.000 0.175 0.1964
2 137 lj/cut 1.000 0.175 0.1964
2 138 lj/cut 1.000 0.175 0.1964
2 139 lj/cut 1.000 0.175 0.1964
2 140 lj/cut 1.000 0.175 0.1964
2 141 lj/cut 1.000 0.175 0.1964
2 142 lj/cut 1.000 0.175 0.1964
2 143 lj/cut 1.000 0.175 0.1964
2 144 lj/cut 1.000 0.175 0.1964
2 145 lj/cut 1.000 0.175 0.1964
2 146 lj/cut 1.000 0.175 0.1964
2 147 lj/cut 1.000 0.175 0.1964
2 148 lj/cut 1.000 0.175 0.1964
2 149 lj/cut 1.000 0.175 0.1964
2 150 lj/cut 1.000 0.175 0.1964
2 151 lj/cut 1.000 0.175 0.1964
2 152 lj/cut 1.000 0.175 0.1964
2 153 lj/cut 1.000 0.175 0.1964
2 154 lj/cut 1.000 0.175 0.1964
2 155 lj/cut 1.000 0.175 0.1964
2 156 lj/cut 1.000 0.175 0.1964
2 157 lj/cut 1.000 0.175 0.1964
2 158 lj/cut 1.000 0.175 0.1964
2 159 lj/cut 1.000 0.175 0.1964
2 160 lj/cut 1.000 0.175 0.1964
2 161 lj/cut 1.000 0.175 0.1964
2 162 lj/cut 1.000 0.175 0.1964
2 163 lj/cut 1.000 0.175 0.1964
2 164 lj/cut 1.000 0.175 0.1964
2 165 lj/cut 1.000 0.175 0.1964
2 166 lj/cut 1.000 0.175 0.1964
2 167 lj/cut 1.000 0.175 0.1964
2 168 lj/cut 1.000 0.175 0.1964
2 169 lj/cut 1.000 0.175 0.1964
2 170 lj/cut 1.000 0.175 0.1964
2 171 lj/cut 1.000 0.175 0.1964
2 172 lj/cut 1.000 0.175 0.1964
2 173 lj/cut 1.000 0.175 0.1964
2 174 lj/cut 1.000 0.175 0.1964
2 175 lj/cut 1.000 0.175 0.1964
2 176 lj/cut 1.000 0.175 0.1964
2 177 lj/cut 1.000 0.175 0.1964
2 178 lj/cut 1.000 0.175 0.1964
2 179 lj/cut 1.000 0.175 0.1964
2 180 lj/cut 1.000 0.175 0.1964
2 181 lj/cut 1.000 0.175 0.1964
2 182 lj/cut 1.000 0.175 0.1964
2 183 lj/cut 1.000 0.175 0.1964
2 184 lj/cut 1.000 0.175 0.1964
2 185 lj/cut 1.000 0.175 0.1964
2 186 lj/cut 1.000 0.175 0.1964
2 187 lj/cut 1.000 0.175 0.1964
2 188 lj/cut 1.000 0.175 0.1964
2 189 lj/cut 1.000 0.175 0.1964
2 190 lj/cut 1.000 0.175 0.1964
2 191 lj/cut 1.000 0.175 0.1964
2 192 lj/cut 1.000 0.175 0.1964
2 193 lj/cut 1.000 0.175 0.1964
2 194 lj/cut 1.000 0.175 0.1964
2 195 lj/cut 1.000 0.175 0.1964
2 196 lj/cut 1.000 0.175 0.1964
2 197 lj/cut 1.000 0.175 0.1964
2 198 lj/cut 1.000 0.175 0.1964
2 199 lj/cut 1.000 0.175 0.1964
2 200 lj/cut 1.000 0.175 0.1964
2 201 lj/cut 1.000 0.175 0.1964
2 202 lj/cut 1.000 0.175 0.1964
2 203 lj/cut 1.000 0.175 0.1964
2 204 lj/cut 1.000 0.175 0.1964
2 205 lj/cut 1.000 0.175 0.1964
2 206 lj/cut 1.000 0.175 0.1964
2 207 lj/cut 1.000 0.175 0.1964
2 208 lj/cut 1.000 0.175 0.1964
2 209 lj/cut 1.000 0.175 0.1964
2 210 lj/cut 1.000 0.175 0.1964
2 211 lj/cut 1.000 0.175 0.1964
2 212 lj/cut 1.000 0.175 0.1964
2 213 lj/cut 1.000 0.175 0.1964
2 214 lj/cut 1.000 0.175 0.1964
2 215 lj/cut 1.000 0.175 0.1964
2 216 lj/cut 1.000 0.175 0.1964
2 217 lj/cut 1.000 0.175 0.1964
2 218 lj/cut 1.000 0.175 0.1964
2 219 lj/cut 1.000 0.175 0.1964
2 220 lj/cut 1.000 0.175 0.1964
2 221 lj/cut 1.000 0.175 0.1964
2 222 lj/cut 1.000 0.175 0.1964
2 223 lj/cut 1.000 0.175 0.1964
2 224 lj/cut 1.000 0.175 0.1964
2 225 lj/cut 1.000 0.175 0.1964
2 226 lj/cut 1.000 0.175 0.1964
2 227 lj/cut 1.000 0.175 0.1964
2 228 lj/cut 1.000 0.175 0.1964
2 229 lj/cut 1.000 0.175 0.1964
2 230 lj/cut 1.000 0.175 0.1964
2 231 lj/cut 1.000 0.175 0.1964
2 232 lj/cut 1.000 0.175 0.1964
2 233 lj/cut 1.000 0.175 0.1964
2 234 lj/cut 1.000 0.175 0.1964
3 3 lj/cut 1.000 0.100 0.1122
3 4 lj/cut 1.000 0.050 0.0561
3 5 lj/cut 1.000 0.175 0.1964
3 6 lj/cut 1.000 0.175 0.1964
3 7 lj/cut 1.000 0.175 0.1964
3 8 lj/cut 1.000 0.175 0.1964
3 9 lj/cut 1.000 0.175 0.1964
3 10 lj/cut 1.000 0.175 0.1964
3 11 lj/cut 1.000 0.175 0.1964
3 12 lj/cut 1.000 0.175 0.1964
3 13 lj/cut 1.000 0.175 0.1964
3 14 lj/cut 1.000 0.175 0.1964
3 15 lj/cut 1.000 0.175 0.1964
3 16 lj/cut 1.000 0.175 0.1964
3 17 lj/cut 1.000 0.175 0.1964
3 18 lj/cut 1.000 0.175 0.1964
3 19 lj/cut 1.000 0.175 0.1964
3 20 lj/cut 1.000 0.175 0.1964
3 21 lj/cut 1.000 0.175 0.1964
3 22 lj/cut 1.000 0.175 0.1964
3 23 lj/cut 1.000 0.175 0.1964
3 24 lj/cut 1.000 0.175 0.1964
3 25 lj/cut 1.000 0.175 0.1964
3 26 lj/cut 1.000 0.175 0.1964
3 27 lj/cut 1.000 0.175 0.1964
3 28 lj/cut 1.000 0.175 0.1964
3 29 lj/cut 1.000 0.175 0.1964
3 30 lj/cut 1.000 0.175 0.1964
3 31 lj/cut 1.000 0.175 0.1964
3 32 lj/cut 1.000 0.175 0.1964
3 33 lj/cut 1.000 0.175 0.1964
3 34 lj/cut 1.000 0.175 0.1964
3 35 lj/cut 1.000 0.175 0.1964
3 36 lj/cut 1.000 0.175 0.1964
3 37 lj/cut 1.000 0.175 0.1964
3 38 lj/cut 1.000 0.175 0.1964
3 39 lj/cut 1.000 0.175 0.1964
3 40 lj/cut 1.000 0.175 0.1964
3 41 lj/cut 1.000 0.175 0.1964
3 42 lj/cut 1.000 0.175 0.1964
3 43 lj/cut 1.000 0.175 0.1964
3 44 lj/cut 1.000 0.175 0.1964
3 45 lj/cut 1.000 0.175 0.1964
3 46 lj/cut 1.000 0.175 0.1964
3 47 lj/cut 1.000 0.175 0.1964
3 48 lj/cut 1.000 0.175 0.1964
3 49 lj/cut 1.000 0.175 0.1964
3 50 lj/cut 1.000 0.175 0.1964
3 51 lj/cut 1.000 0.175 0.1964
3 52 lj/cut 1.000 0.175 0.1964
3 53 lj/cut 1.000 0.175 0.1964
3 54 lj/cut 1.000 0.175 0.1964
3 55 lj/cut 1.000 0.175 0.1964
3 56 lj/cut 1.000 0.175 0.1964
3 57 lj/cut 1.000 0.175 0.1964
3 58 lj/cut 1.000 0.175 0.1964
3 59 lj/cut 1.000 0.175 0.1964
3 60 lj/cut 1.000 0.175 0.1964
3 61 lj/cut 1.000 0.175 0.1964
3 62 lj/cut 1.000 0.175 0.1964
3 63 lj/cut 1.000 0.175 0.1964
3 64 lj/cut 1.000 0.175 0.1964
3 65 lj/cut 1.000 0.175 0.1964
3 66 lj/cut 1.000 0.175 0.1964
3 67 lj/cut 1.000 0.175 0.1964
3 68 lj/cut 1.000 0.175 0.1964
3 69 lj/cut 1.000 0.175 0.1964
3 70 lj/cut 1.000 0.175 0.1964
3 71 lj/cut 1.000 0.175 0.1964
3 72 lj/cut 1.000 0.175 0.1964
3 73 lj/cut 1.000 0.175 0.1964
3 74 lj/cut 1.000 0.175 0.1964
3 75 lj/cut 1.000 0.175 0.1964
3 76 lj/cut 1.000 0.175 0.1964
3 77 lj/cut 1.000 0.175 0.1964
3 78 lj/cut 1.000 0.175 0.1964
3 79 lj/cut 1.000 0.175 0.1964
3 80 lj/cut 1.000 0.175 0.1964
3 81 lj/cut 1.000 0.175 0.1964
3 82 lj/cut 1.000 0.175 0.1964
3 83 lj/cut 1.000 0.175 0.1964
3 84 lj/cut 1.000 0.175 0.1964
3 85 lj/cut 1.000 0.175 0.1964
3 86 lj/cut 1.000 0.175 0.1964
3 87 lj/cut 1.000 0.175 0.1964
3 88 lj/cut 1.000 0.175 0.1964
3 89 lj/cut 1.000 0.175 0.1964
3 90 lj/cut 1.000 0.175 0.1964
3 91 lj/cut 1.000 0.175 0.1964
3 92 lj/cut 1.000 0.175 0.1964
3 93 lj/cut 1.000 0.175 0.1964
3 94 lj/cut 1.000 0.175 0.1964
3 95 lj/cut 1.000 0.175 0.1964
3 96 lj/cut 1.000 0.175 0.1964
3 97 lj/cut 1.000 0.175 0.1964
3 98 lj/cut 1.000 0.175 0.1964
3 99 lj/cut 1.000 0.175 0.1964
3 100 lj/cut 1.000 0.175 0.1964
3 101 lj/cut 1.000 0.175 0.1964
3 102 lj/cut 1.000 0.175 0.1964
3 103 lj/cut 1.000 0.175 0.1964
3 104 lj/cut 1.000 0.175 0.1964
3 105 lj/cut 1.000 0.175 0.1964
3 106 lj/cut 1.000 0.175 0.1964
3 107 lj/cut 1.000 0.175 0.1964
3 108 lj/cut 1.000 0.175 0.1964
3 109 lj/cut 1.000 0.175 0.1964
3 110 lj/cut 1.000 0.175 0.1964
3 111 lj/cut 1.000 0.175 0.1964
3 112 lj/cut 1.000 0.175 0.1964
3 113 lj/cut 1.000 0.175 0.1964
3 114 lj/cut 1.000 0.175 0.1964
3 115 lj/cut 1.000 0.175 0.1964
3 116 lj/cut 1.000 0.175 0.1964
3 117 lj/cut 1.000 0.175 0.1964
3 118 lj/cut 1.000 0.175 0.1964
3 119 lj/cut 1.000 0.175 0.1964
3 120 lj/cut 1.000 0.175 0.1964
3 121 lj/cut 1.000 0.175 0.1964
3 122 lj/cut 1.000 0.175 0.1964
3 123 lj/cut 1.000 0.175 0.1964
3 124 lj/cut 1.000 0.175 0.1964
3 125 lj/cut 1.000 0.175 0.1964
3 126 lj/cut 1.000 0.175 0.1964
3 127 lj/cut 1.000 0.175 0.1964
3 128 lj/cut 1.000 0.175 0.1964
3 129 lj/cut 1.000 0.175 0.1964
3 130 lj/cut 1.000 0.175 0.1964
3 131 lj/cut 1.000 0.175 0.1964
3 132 lj/cut 1.000 0.175 0.1964
3 133 lj/cut 1.000 0.175 0.1964
3 134 lj/cut 1.000 0.175 0.1964
3 135 lj/cut 1.000 0.175 0.1964
3 136 lj/cut 1.000 0.175 0.1964
3 137 lj/cut 1.000 0.175 0.1964
3 138 lj/cut 1.000 0.175 0.1964
3 139 lj/cut 1.000 0.175 0.1964
3 140 lj/cut 1.000 0.175 0.1964
3 141 lj/cut 1.000 0.175 0.1964
3 142 lj/cut 1.000 0.175 0.1964
3 143 lj/cut 1.000 0.175 0.1964
3 144 lj/cut 1.000 0.175 0.1964
3 145 lj/cut 1.000 0.175 0.1964
3 146 lj/cut 1.000 0.175 0.1964
3 147 lj/cut 1.000 0.175 0.1964
3 148 lj/cut 1.000 0.175 0.1964
3 149 lj/cut 1.000 0.175 0.1964
3 150 lj/cut 1.000 0.175 0.1964
3 151 lj/cut 1.000 0.175 0.1964
3 152 lj/cut 1.000 0.175 0.1964
3 153 lj/cut 1.000 0.175 0.1964
3 154 lj/cut 1.000 0.175 0.1964
3 155 lj/cut 1.000 0.175 0.1964
3 156 lj/cut 1.000 0.175 0.1964
3 157 lj/cut 1.000 0.175 0.1964
3 158 lj/cut 1.000 0.175 0.1964
3 159 lj/cut 1.000 0.175 0.1964
3 160 lj/cut 1.000 0.175 0.1964
3 161 lj/cut 1.000 0.175 0.1964
3 162 lj/cut 1.000 0.175 0.1964
3 163 lj/cut 1.000 0.175 0.1964
3 164 lj/cut 1.000 0.175 0.1964
3 165 lj/cut 1.000 0.175 0.1964
3 166 lj/cut 1.000 0.175 0.1964
3 167 lj/cut 1.000 0.175 0.1964
3 168 lj/cut 1.000 0.175 0.1964
3 169 lj/cut 1.000 0.175 0.1964
3 170 lj/cut 1.000 0.175 0.1964
3 171 lj/cut 1.000 0.175 0.1964
3 172 lj/cut 1.000 0.175 0.1964
3 173 lj/cut 1.000 0.175 0.1964
3 174 lj/cut 1.000 0.175 0.1964
3 175 lj/cut 1.000 0.175 0.1964
3 176 lj/cut 1.000 0.175 0.1964
3 177 lj/cut 1.000 0.175 0.1964
3 178 lj/cut 1.000 0.175 0.1964
3 179 lj/cut 1.000 0.175 0.1964
3 180 lj/cut 1.000 0.175 0.1964
3 181 lj/cut 1.000 0.175 0.1964
3 182 lj/cut 1.000 0.175 0.1964
3 183 lj/cut 1.000 0.175 0.1964
3 184 lj/cut 1.000 0.175 0.1964
3 185 lj/cut 1.000 0.175 0.1964
3 186 lj/cut 1.000 0.175 0.1964
3 187 lj/cut 1.000 0.175 0.1964
3 188 lj/cut 1.000 0.175 0.1964
3 189 lj/cut 1.000 0.175 0.1964
3 190 lj/cut 1.000 0.175 0.1964
3 191 lj/cut 1.000 0.175 0.1964
3 192 lj/cut 1.000 0.175 0.1964
3 193 lj/cut 1.000 0.175 0.1964
3 194 lj/cut 1.000 0.175 0.1964
3 195 lj/cut 1.000 0.175 0.1964
3 196 lj/cut 1.000 0.175 0.1964
3 197 lj/cut 1.000 0.175 0.1964
3 198 lj/cut 1.000 0.175 0.1964
3 199 lj/cut 1.000 0.175 0.1964
3 200 lj/cut 1.000 0.175 0.1964
3 201 lj/cut 1.000 0.175 0.1964
3 202 lj/cut 1.000 0.175 0.1964
3 203 lj/cut 1.000 0.175 0.1964
3 204 lj/cut 1.000 0.175 0.1964
3 205 lj/cut 1.000 0.175 0.1964
3 206 lj/cut 1.000 0.175 0.1964
3 207 lj/cut 1.000 0.175 0.1964
3 208 lj/cut 1.000 0.175 0.1964
3 209 lj/cut 1.000 0.175 0.1964
3 210 lj/cut 1.000 0.175 0.1964
3 211 lj/cut 1.000 0.175 0.1964
3 212 lj/cut 1.000 0.175 0.1964
3 213 lj/cut 1.000 0.175 0.1964
3 214 lj/cut 1.000 0.175 0.1964
3 215 lj/cut 1.000 0.175 0.1964
3 216 lj/cut 1.000 0.175 0.1964
3 217 lj/cut 1.000 0.175 0.1964
3 218 lj/cut 1.000 0.175 0.1964
3 219 lj/cut 1.000 0.175 0.1964
3 220 lj/cut 1.000 0.175 0.1964
3 221 lj/cut 1.000 0.175 0.1964
3 222 lj/cut 1.000 0.175 0.1964
3 223 lj/cut 1.000 0.175 0.1964
3 224 lj/cut 1.000 0.175 0.1964
3 225 lj/cut 1.000 0.175 0.1964
3 226 lj/cut 1.000 0.175 0.1964
3 227 lj/cut 1.000 0.175 0.1964
3 228 lj/cut 1.000 0.175 0.1964
3 229 lj/cut 1.000 0.175 0.1964
3 230 lj/cut 1.000 0.175 0.1964
3 231 lj/cut 1.000 0.175 0.1964
3 232 lj/cut 1.000 0.175 0.1964
3 233 lj/cut 1.000 0.175 0.1964
3 234 lj/cut 1.000 0.175 0.1964
4 4 lj/cut 1.000 0.175 0.1964
4 5 lj/cut 1.000 0.175 0.1964
4 6 lj/cut 1.000 0.175 0.1964
4 7 lj/cut 1.000 0.175 0.1964
4 8 lj/cut 1.000 0.175 0.1964
4 9 lj/cut 1.000 0.175 0.1964
4 10 lj/cut 1.000 0.175 0.1964
4 11 lj/cut 1.000 0.175 0.1964
4 12 lj/cut 1.000 0.175 0.1964
4 13 lj/cut 1.000 0.175 0.1964
4 14 lj/cut 1.000 0.175 0.1964
4 15 lj/cut 1.000 0.175 0.1964
4 16 lj/cut 1.000 0.175 0.1964
4 17 lj/cut 1.000 0.175 0.1964
4 18 lj/cut 1.000 0.175 0.1964
4 19 lj/cut 1.000 0.175 0.1964
4 20 lj/cut 1.000 0.175 0.1964
4 21 lj/cut 1.000 0.175 0.1964
4 22 lj/cut 1.000 0.175 0.1964
4 23 lj/cut 1.000 0.175 0.1964
4 24 lj/cut 1.000 0.175 0.1964
4 25 lj/cut 1.000 0.175 0.1964
4 26 lj/cut 1.000 0.175 0.1964
4 27 lj/cut 1.000 0.175 0.1964
4 28 lj/cut 1.000 0.175 0.1964
4 29 lj/cut 1.000 0.175 0.1964
4 30 lj/cut 1.000 0.175 0.1964
4 31 lj/cut 1.000 0.175 0.1964
4 32 lj/cut 1.000 0.175 0.1964
4 33 lj/cut 1.000 0.175 0.1964
4 34 lj/cut 1.000 0.175 0.1964
4 35 lj/cut 1.000 0.175 0.1964
4 36 lj/cut 1.000 0.175 0.1964
4 37 lj/cut 1.000 0.175 0.1964
4 38 lj/cut 1.000 0.175 0.1964
4 39 lj/cut 1.000 0.175 0.1964
4 40 lj/cut 1.000 0.175 0.1964
4 41 lj/cut 1.000 0.175 0.1964
4 42 lj/cut 1.000 0.175 0.1964
4 43 lj/cut 1.000 0.175 0.1964
4 44 lj/cut 1.000 0.175 0.1964
4 45 lj/cut 1.000 0.175 0.1964
4 46 lj/cut 1.000 0.175 0.1964
4 47 lj/cut 1.000 0.175 0.1964
4 48 lj/cut 1.000 0.175 0.1964
4 49 lj/cut 1.000 0.175 0.1964
4 50 lj/cut 1.000 0.175 0.1964
4 51 lj/cut 1.000 0.175 0.1964
4 52 lj/cut 1.000 0.175 0.1964
4 53 lj/cut 1.000 0.175 0.1964
4 54 lj/cut 1.000 0.175 0.1964
4 55 lj/cut 1.000 0.175 0.1964
4 56 lj/cut 1.000 0.175 0.1964
4 57 lj/cut 1.000 0.175 0.1964
4 58 lj/cut 1.000 0.175 0.1964
4 59 lj/cut 1.000 0.175 0.1964
4 60 lj/cut 1.000 0.175 0.1964
4 61 lj/cut 1.000 0.175 0.1964
4 62 lj/cut 1.000 0.175 0.1964
4 63 lj/cut 1.000 0.175 0.1964
4 64 lj/cut 1.000 0.175 0.1964
4 65 lj/cut 1.000 0.175 0.1964
4 66 lj/cut 1.000 0.175 0.1964
4 67 lj/cut 1.000 0.175 0.1964
4 68 lj/cut 1.000 0.175 0.1964
4 69 lj/cut 1.000 0.175 0.1964
4 70 lj/cut 1.000 0.175 0.1964
4 71 lj/cut 1.000 0.175 0.1964
4 72 lj/cut 1.000 0.175 0.1964
4 73 lj/cut 1.000 0.175 0.1964
4 74 lj/cut 1.000 0.175 0.1964
4 75 lj/cut 1.000 0.175 0.1964
4 76 lj/cut 1.000 0.175 0.1964
4 77 lj/cut 1.000 0.175 0.1964
4 78 lj/cut 1.000 0.175 0.1964
4 79 lj/cut 1.000 0.175 0.1964
4 80 lj/cut 1.000 0.175 0.1964
4 81 lj/cut 1.000 0.175 0.1964
4 82 lj/cut 1.000 0.175 0.1964
4 83 lj/cut 1.000 0.175 0.1964
4 84 lj/cut 1.000 0.175 0.1964
4 85 lj/cut 1.000 0.175 0.1964
4 86 lj/cut 1.000 0.175 0.1964
4 87 lj/cut 1.000 0.175 0.1964
4 88 lj/cut 1.000 0.175 0.1964
4 89 lj/cut 1.000 0.175 0.1964
4 90 lj/cut 1.000 0.175 0.1964
4 91 lj/cut 1.000 0.175 0.1964
4 92 lj/cut 1.000 0.175 0.1964
4 93 lj/cut 1.000 0.175 0.1964
4 94 lj/cut 1.000 0.175 0.1964
4 95 lj/cut 1.000 0.175 0.1964
4 96 lj/cut 1.000 0.175 0.1964
4 97 lj/cut 1.000 0.175 0.1964
4 98 lj/cut 1.000 0.175 0.1964
4 99 lj/cut 1.000 0.175 0.1964
4 100 lj/cut 1.000 0.175 0.1964
4 101 lj/cut 1.000 0.175 0.1964
4 102 lj/cut 1.000 0.175 0.1964
4 103 lj/cut 1.000 0.175 0.1964
4 104 lj/cut 1.000 0.175 0.1964
4 105 lj/cut 1.000 0.175 0.1964
4 106 lj/cut 1.000 0.175 0.1964
4 107 lj/cut 1.000 0.175 0.1964
4 108 lj/cut 1.000 0.175 0.1964
4 109 lj/cut 1.000 0.175 0.1964
4 110 lj/cut 1.000 0.175 0.1964
4 111 lj/cut 1.000 0.175 0.1964
4 112 lj/cut 1.000 0.175 0.1964
4 113 lj/cut 1.000 0.175 0.1964
4 114 lj/cut 1.000 0.175 0.1964
4 115 lj/cut 1.000 0.175 0.1964
4 116 lj/cut 1.000 0.175 0.1964
4 117 lj/cut 1.000 0.175 0.1964
4 118 lj/cut 1.000 0.175 0.1964
4 119 lj/cut 1.000 0.175 0.1964
4 120 lj/cut 1.000 0.175 0.1964
4 121 lj/cut 1.000 0.175 0.1964
4 122 lj/cut 1.000 0.175 0.1964
4 123 lj/cut 1.000 0.175 0.1964
4 124 lj/cut 1.000 0.175 0.1964
4 125 lj/cut 1.000 0.175 0.1964
4 126 lj/cut 1.000 0.175 0.1964
4 127 lj/cut 1.000 0.175 0.1964
4 128 lj/cut 1.000 0.175 0.1964
4 129 lj/cut 1.000 0.175 0.1964
4 130 lj/cut 1.000 0.175 0.1964
4 131 lj/cut 1.000 0.175 0.1964
4 132 lj/cut 1.000 0.175 0.1964
4 133 lj/cut 1.000 0.175 0.1964
4 134 lj/cut 1.000 0.175 0.1964
4 135 lj/cut 1.000 0.175 0.1964
4 136 lj/cut 1.000 0.175 0.1964
4 137 lj/cut 1.000 0.175 0.1964
4 138 lj/cut 1.000 0.175 0.1964
4 139 lj/cut 1.000 0.175 0.1964
4 140 lj/cut 1.000 0.175 0.1964
4 141 lj/cut 1.000 0.175 0.1964
4 142 lj/cut 1.000 0.175 0.1964
4 143 lj/cut 1.000 0.175 0.1964
4 144 lj/cut 1.000 0.175 0.1964
4 145 lj/cut 1.000 0.175 0.1964
4 146 lj/cut 1.000 0.175 0.1964
4 147 lj/cut 1.000 0.175 0.1964
4 148 lj/cut 1.000 0.175 0.1964
4 149 lj/cut 1.000 0.175 0.1964
4 150 lj/cut 1.000 0.175 0.1964
4 151 lj/cut 1.000 0.175 0.1964
4 152 lj/cut 1.000 0.175 0.1964
4 153 lj/cut 1.000 0.175 0.1964
4 154 lj/cut 1.000 0.175 0.1964
4 155 lj/cut 1.000 0.175 0.1964
4 156 lj/cut 1.000 0.175 0.1964
4 157 lj/cut 1.000 0.175 0.1964
4 158 lj/cut 1.000 0.175 0.1964
4 159 lj/cut 1.000 0.175 0.1964
4 160 lj/cut 1.000 0.175 0.1964
4 161 lj/cut 1.000 0.175 0.1964
4 162 lj/cut 1.000 0.175 0.1964
4 163 lj/cut 1.000 0.175 0.1964
4 164 lj/cut 1.000 0.175 0.1964
4 165 lj/cut 1.000 0.175 0.1964
4 166 lj/cut 1.000 0.175 0.1964
4 167 lj/cut 1.000 0.175 0.1964
4 168 lj/cut 1.000 0.175 0.1964
4 169 lj/cut 1.000 0.175 0.1964
4 170 lj/cut 1.000 0.175 0.1964
4 171 lj/cut 1.000 0.175 0.1964
4 172 lj/cut 1.000 0.175 0.1964
4 173 lj/cut 1.000 0.175 0.1964
4 174 lj/cut 1.000 0.175 0.1964
4 175 lj/cut 1.000 0.175 0.1964
4 176 lj/cut 1.000 0.175 0.1964
4 177 lj/cut 1.000 0.175 0.1964
4 178 lj/cut 1.000 0.175 0.1964
4 179 lj/cut 1.000 0.175 0.1964
4 180 lj/cut 1.000 0.175 0.1964
4 181 lj/cut 1.000 0.175 0.1964
4 182 lj/cut 1.000 0.175 0.1964
4 183 lj/cut 1.000 0.175 0.1964
4 184 lj/cut 1.000 0.175 0.1964
4 185 lj/cut 1.000 0.175 0.1964
4 186 lj/cut 1.000 0.175 0.1964
4 187 lj/cut 1.000 0.175 0.1964
4 188 lj/cut 1.000 0.175 0.1964
4 189 lj/cut 1.000 0.175 0.1964
4 190 lj/cut 1.000 0.175 0.1964
4 191 lj/cut 1.000 0.175 0.1964
4 192 lj/cut 1.000 0.175 0.1964
4 193 lj/cut 1.000 0.175 0.1964
4 194 lj/cut 1.000 0.175 0.1964
4 195 lj/cut 1.000 0.175 0.1964
4 196 lj/cut 1.000 0.175 0.1964
4 197 lj/cut 1.000 0.175 0.1964
4 198 lj/cut 1.000 0.175 0.1964
4 199 lj/cut 1.000 0.175 0.1964
4 200 lj/cut 1.000 0.175 0.1964
4 201 lj/cut 1.000 0.175 0.1964
4 202 lj/cut 1.000 0.175 0.1964
4 203 lj/cut 1.000 0.175 0.1964
4 204 lj/cut 1.000 0.175 0.1964
4 205 lj/cut 1.000 0.175 0.1964
4 206 lj/cut 1.000 0.175 0.1964
4 207 lj/cut 1.000 0.175 0.1964
4 208 lj/cut 1.000 0.175 0.1964
4 209 lj/cut 1.000 0.175 0.1964
4 210 lj/cut 1.000 0.175 0.1964
4 211 lj/cut 1.000 0.175 0.1964
4 212 lj/cut 1.000 0.175 0.1964
4 213 lj/cut 1.000 0.175 0.1964
4 214 lj/cut 1.000 0.175 0.1964
4 215 lj/cut 1.000 0.175 0.1964
4 216 lj/cut 1.000 0.175 0.1964
4 217 lj/cut 1.000 0.175 0.1964
4 218 lj/cut 1.000 0.175 0.1964
4 219 lj/cut 1.000 0.175 0.1964
4 220 lj/cut 1.000 0.175 0.1964
4 221 lj/cut 1.000 0.175 0.1964
4 222 lj/cut 1.000 0.175 0.1964
4 223 lj/cut 1.000 0.175 0.1964
4 224 lj/cut 1.000 0.175 0.1964
4 225 lj/cut 1.000 0.175 0.1964
4 226 lj/cut 1.000 0.175 0.1964
4 227 lj/cut 1.000 0.175 0.1964
4 228 lj/cut 1.000 0.175 0.1964
4 229 lj/cut 1.000 0.175 0.1964
4 230 lj/cut 1.000 0.175 0.1964
4 231 lj/cut 1.000 0.175 0.1964
4 232 lj/cut 1.000 0.175 0.1964
4 233 lj/cut 1.000 0.175 0.1964
4 234 lj/cut 1.000 0.175 0.1964
5 5 lj/cut 1.000 0.175 0.1964
5 6 lj/cut 1.000 0.175 0.1964
5 7 lj/cut 1.000 0.175 0.1964
5 8 lj/cut 1.000 0.175 0.1964
5 9 lj/cut 1.000 0.175 0.1964
5 10 lj/cut 1.000 0.175 0.1964
5 11 lj/cut 1.000 0.175 0.1964
5 12 lj/cut 1.000 0.175 0.1964
5 13 lj/cut 1.000 0.175 0.1964
5 14 lj/cut 1.000 0.175 0.1964